 Entering Gaussian System, Link 0=/sysapps/ubuntu-applications/gaussian-new/avx/g16//g16
 Input=ylide.in
 Output=ylide.log
 Initial command:
 /sysapps/ubuntu-applications/gaussian-new/avx/g16/l1.exe "/data/temp-scratch/selhajj1/7490225/Gau-481866.inp" -scrdir="/data/temp-scratch/selhajj1/7490225/"
 Entering Link 1 = /sysapps/ubuntu-applications/gaussian-new/avx/g16/l1.exe PID=    481868.
  
 Copyright (c) 1988,1990,1992,1993,1995,1998,2003,2009,2016,
            Gaussian, Inc.  All Rights Reserved.
  
 This is part of the Gaussian(R) 16 program.  It is based on
 the Gaussian(R) 09 system (copyright 2009, Gaussian, Inc.),
 the Gaussian(R) 03 system (copyright 2003, Gaussian, Inc.),
 the Gaussian(R) 98 system (copyright 1998, Gaussian, Inc.),
 the Gaussian(R) 94 system (copyright 1995, Gaussian, Inc.),
 the Gaussian 92(TM) system (copyright 1992, Gaussian, Inc.),
 the Gaussian 90(TM) system (copyright 1990, Gaussian, Inc.),
 the Gaussian 88(TM) system (copyright 1988, Gaussian, Inc.),
 the Gaussian 86(TM) system (copyright 1986, Carnegie Mellon
 University), and the Gaussian 82(TM) system (copyright 1983,
 Carnegie Mellon University). Gaussian is a federally registered
 trademark of Gaussian, Inc.
  
 This software contains proprietary and confidential information,
 including trade secrets, belonging to Gaussian, Inc.
  
 This software is provided under written license and may be
 used, copied, transmitted, or stored only in accord with that
 written license.
  
 The following legend is applicable only to US Government
 contracts under FAR:
  
                    RESTRICTED RIGHTS LEGEND
  
 Use, reproduction and disclosure by the US Government is
 subject to restrictions as set forth in subparagraphs (a)
 and (c) of the Commercial Computer Software - Restricted
 Rights clause in FAR 52.227-19.
  
 Gaussian, Inc.
 340 Quinnipiac St., Bldg. 40, Wallingford CT 06492
  
  
 ---------------------------------------------------------------
 Warning -- This program may not be used in any manner that
 competes with the business of Gaussian, Inc. or will provide
 assistance to any competitor of Gaussian, Inc.  The licensee
 of this program is prohibited from giving any competitor of
 Gaussian, Inc. access to this program.  By using this program,
 the user acknowledges that Gaussian, Inc. is engaged in the
 business of creating and licensing software in the field of
 computational chemistry and represents and warrants to the
 licensee that it is not a competitor of Gaussian, Inc. and that
 it will not use this program in any manner prohibited above.
 ---------------------------------------------------------------
  

 Cite this work as:
 Gaussian 16, Revision A.03,
 M. J. Frisch, G. W. Trucks, H. B. Schlegel, G. E. Scuseria, 
 M. A. Robb, J. R. Cheeseman, G. Scalmani, V. Barone, 
 G. A. Petersson, H. Nakatsuji, X. Li, M. Caricato, A. V. Marenich, 
 J. Bloino, B. G. Janesko, R. Gomperts, B. Mennucci, H. P. Hratchian, 
 J. V. Ortiz, A. F. Izmaylov, J. L. Sonnenberg, D. Williams-Young, 
 F. Ding, F. Lipparini, F. Egidi, J. Goings, B. Peng, A. Petrone, 
 T. Henderson, D. Ranasinghe, V. G. Zakrzewski, J. Gao, N. Rega, 
 G. Zheng, W. Liang, M. Hada, M. Ehara, K. Toyota, R. Fukuda, 
 J. Hasegawa, M. Ishida, T. Nakajima, Y. Honda, O. Kitao, H. Nakai, 
 T. Vreven, K. Throssell, J. A. Montgomery, Jr., J. E. Peralta, 
 F. Ogliaro, M. J. Bearpark, J. J. Heyd, E. N. Brothers, K. N. Kudin, 
 V. N. Staroverov, T. A. Keith, R. Kobayashi, J. Normand, 
 K. Raghavachari, A. P. Rendell, J. C. Burant, S. S. Iyengar, 
 J. Tomasi, M. Cossi, J. M. Millam, M. Klene, C. Adamo, R. Cammi, 
 J. W. Ochterski, R. L. Martin, K. Morokuma, O. Farkas, 
 J. B. Foresman, and D. J. Fox, Gaussian, Inc., Wallingford CT, 2016.
 
 ******************************************
 Gaussian 16:  ES64L-G16RevA.03 25-Dec-2016
                28-Jan-2025 
 ******************************************
 %chk=ylide.chk
 %mem=616Gb
 %nprocshared=24
 Will use up to   24 processors via shared memory.
 ------------------------------------------------------------------
 #P MN15/gen scf=(maxcyc=500) opt scrf=(smd,solvent=DiChloroEthane)
 ------------------------------------------------------------------
 1/18=20,19=15,26=3,38=1/1,3;
 2/9=110,12=2,17=6,18=5,40=1/2;
 3/5=7,11=2,25=1,30=1,70=32201,71=1,72=10,74=-73/1,2,3;
 4//1;
 5/5=2,7=500,38=5,53=10/2;
 6/7=2,8=2,9=2,10=2,28=1/1;
 7//1,2,3,16;
 1/18=20,19=15,26=3/3(2);
 2/9=110/2;
 99//99;
 2/9=110/2;
 3/5=7,6=1,11=2,25=1,30=1,70=32205,71=1,72=10,74=-73,82=7/1,2,3;
 4/5=5,16=3,69=1/1;
 5/5=2,7=500,38=5,53=10/2;
 7//1,2,3,16;
 1/18=20,19=15,26=3/3(-5);
 2/9=110/2;
 6/7=2,8=2,9=2,10=2,19=2,28=1/1;
 99/9=1/99;
 Leave Link    1 at Tue Jan 28 15:29:45 2025, MaxMem= 82678120448 cpu:              32.6 elap:               1.4
 (Enter /sysapps/ubuntu-applications/gaussian-new/avx/g16/l101.exe)
 ---
 Opt
 ---
 Symbolic Z-matrix:
 Charge =  0 Multiplicity = 1
 C                     4.63504   1.52422  -0.54538 
 C                     5.2851    1.66474  -1.85838 
 C                     4.51267   2.83409   0.11811 
 N                     5.69895   1.82922  -2.92633 
 N                     4.35321   3.84356   0.662 
 C                     5.11474   0.55473   1.61874 
 C                     6.83111  -1.12923   0.39367 
 C                     5.76199  -0.39159   2.39929 
 H                     4.34252   1.29684   1.97667 
 C                     6.63332  -1.2538    1.77358 
 H                     7.50576  -1.80492  -0.19033 
 H                     5.56032  -0.45231   3.50019 
 H                     7.17827  -2.0536    2.33661 
 N                     5.42594   0.62627   0.32333 
 N                     6.23916  -0.18061  -0.31437 
 
 ITRead=  0  0  0  0  0  0  0  0  0  0  0  0  0  0  0
 MicOpt= -1 -1 -1 -1 -1 -1 -1 -1 -1 -1 -1 -1 -1 -1 -1
 NAtoms=     15 NQM=       15 NQMF=       0 NMMI=      0 NMMIF=      0
                NMic=       0 NMicF=      0.
                    Isotopes and Nuclear Properties:
 (Nuclear quadrupole moments (NQMom) in fm**2, nuclear magnetic moments (NMagM)
  in nuclear magnetons)

  Atom         1           2           3           4           5           6           7           8           9          10
 IAtWgt=          12          12          12          14          14          12          12          12           1          12
 AtmWgt=  12.0000000  12.0000000  12.0000000  14.0030740  14.0030740  12.0000000  12.0000000  12.0000000   1.0078250  12.0000000
 NucSpn=           0           0           0           2           2           0           0           0           1           0
 AtZEff=  -0.0000000  -0.0000000  -0.0000000  -0.0000000  -0.0000000  -0.0000000  -0.0000000  -0.0000000  -0.0000000  -0.0000000
 NQMom=    0.0000000   0.0000000   0.0000000   2.0440000   2.0440000   0.0000000   0.0000000   0.0000000   0.0000000   0.0000000
 NMagM=    0.0000000   0.0000000   0.0000000   0.4037610   0.4037610   0.0000000   0.0000000   0.0000000   2.7928460   0.0000000
 AtZNuc=   6.0000000   6.0000000   6.0000000   7.0000000   7.0000000   6.0000000   6.0000000   6.0000000   1.0000000   6.0000000

  Atom        11          12          13          14          15
 IAtWgt=           1           1           1          14          14
 AtmWgt=   1.0078250   1.0078250   1.0078250  14.0030740  14.0030740
 NucSpn=           1           1           1           2           2
 AtZEff=  -0.0000000  -0.0000000  -0.0000000  -0.0000000  -0.0000000
 NQMom=    0.0000000   0.0000000   0.0000000   2.0440000   2.0440000
 NMagM=    2.7928460   2.7928460   2.7928460   0.4037610   0.4037610
 AtZNuc=   1.0000000   1.0000000   1.0000000   7.0000000   7.0000000
 Leave Link  101 at Tue Jan 28 15:29:46 2025, MaxMem= 82678120448 cpu:              15.5 elap:               0.7
 (Enter /sysapps/ubuntu-applications/gaussian-new/avx/g16/l103.exe)

 GradGradGradGradGradGradGradGradGradGradGradGradGradGradGradGradGradGrad
 Berny optimization.
 Initialization pass.
                           ----------------------------
                           !    Initial Parameters    !
                           ! (Angstroms and Degrees)  !
 --------------------------                            --------------------------
 ! Name  Definition              Value          Derivative Info.                !
 --------------------------------------------------------------------------------
 ! R1    R(1,2)                  1.4718         estimate D2E/DX2                !
 ! R2    R(1,3)                  1.4734         estimate D2E/DX2                !
 ! R3    R(1,14)                 1.4787         estimate D2E/DX2                !
 ! R4    R(2,4)                  1.1571         estimate D2E/DX2                !
 ! R5    R(3,5)                  1.1577         estimate D2E/DX2                !
 ! R6    R(6,8)                  1.387          estimate D2E/DX2                !
 ! R7    R(6,9)                  1.1292         estimate D2E/DX2                !
 ! R8    R(6,14)                 1.3342         estimate D2E/DX2                !
 ! R9    R(7,10)                 1.3996         estimate D2E/DX2                !
 ! R10   R(7,11)                 1.1193         estimate D2E/DX2                !
 ! R11   R(7,15)                 1.3235         estimate D2E/DX2                !
 ! R12   R(8,10)                 1.3763         estimate D2E/DX2                !
 ! R13   R(8,12)                 1.1209         estimate D2E/DX2                !
 ! R14   R(10,13)                1.1197         estimate D2E/DX2                !
 ! R15   R(14,15)                1.3111         estimate D2E/DX2                !
 ! A1    A(2,1,3)              110.7027         estimate D2E/DX2                !
 ! A2    A(2,1,14)             110.2327         estimate D2E/DX2                !
 ! A3    A(3,1,14)             108.6466         estimate D2E/DX2                !
 ! A4    A(8,6,9)              126.0954         estimate D2E/DX2                !
 ! A5    A(8,6,14)             118.304          estimate D2E/DX2                !
 ! A6    A(9,6,14)             115.5961         estimate D2E/DX2                !
 ! A7    A(10,7,11)            123.0856         estimate D2E/DX2                !
 ! A8    A(10,7,15)            121.8742         estimate D2E/DX2                !
 ! A9    A(11,7,15)            115.0341         estimate D2E/DX2                !
 ! A10   A(6,8,10)             117.8416         estimate D2E/DX2                !
 ! A11   A(6,8,12)             120.3807         estimate D2E/DX2                !
 ! A12   A(10,8,12)            121.7703         estimate D2E/DX2                !
 ! A13   A(7,10,8)             118.8139         estimate D2E/DX2                !
 ! A14   A(7,10,13)            119.3793         estimate D2E/DX2                !
 ! A15   A(8,10,13)            121.8048         estimate D2E/DX2                !
 ! A16   A(1,14,6)             118.5692         estimate D2E/DX2                !
 ! A17   A(1,14,15)            114.8173         estimate D2E/DX2                !
 ! A18   A(6,14,15)            125.7264         estimate D2E/DX2                !
 ! A19   A(7,15,14)            117.2785         estimate D2E/DX2                !
 ! A20   L(1,2,4,11,-1)        185.3058         estimate D2E/DX2                !
 ! A21   L(1,3,5,9,-1)         178.2656         estimate D2E/DX2                !
 ! A22   L(1,2,4,11,-2)        177.6259         estimate D2E/DX2                !
 ! A23   L(1,3,5,9,-2)         183.0634         estimate D2E/DX2                !
 ! D1    D(2,1,14,6)           169.0011         estimate D2E/DX2                !
 ! D2    D(2,1,14,15)          -21.1582         estimate D2E/DX2                !
 ! D3    D(3,1,14,6)            47.5337         estimate D2E/DX2                !
 ! D4    D(3,1,14,15)         -142.6256         estimate D2E/DX2                !
 ! D5    D(9,6,8,10)           177.1605         estimate D2E/DX2                !
 ! D6    D(9,6,8,12)            -1.869          estimate D2E/DX2                !
 ! D7    D(14,6,8,10)           -3.6469         estimate D2E/DX2                !
 ! D8    D(14,6,8,12)          177.3235         estimate D2E/DX2                !
 ! D9    D(8,6,14,1)           173.2026         estimate D2E/DX2                !
 ! D10   D(8,6,14,15)            4.5763         estimate D2E/DX2                !
 ! D11   D(9,6,14,1)            -7.5208         estimate D2E/DX2                !
 ! D12   D(9,6,14,15)         -176.1471         estimate D2E/DX2                !
 ! D13   D(11,7,10,8)         -178.678          estimate D2E/DX2                !
 ! D14   D(11,7,10,13)           0.8108         estimate D2E/DX2                !
 ! D15   D(15,7,10,8)            2.2707         estimate D2E/DX2                !
 ! D16   D(15,7,10,13)        -178.2404         estimate D2E/DX2                !
 ! D17   D(10,7,15,14)          -1.6889         estimate D2E/DX2                !
 ! D18   D(11,7,15,14)         179.1884         estimate D2E/DX2                !
 ! D19   D(6,8,10,7)             0.489          estimate D2E/DX2                !
 ! D20   D(6,8,10,13)         -178.9869         estimate D2E/DX2                !
 ! D21   D(12,8,10,7)          179.5042         estimate D2E/DX2                !
 ! D22   D(12,8,10,13)           0.0284         estimate D2E/DX2                !
 ! D23   D(1,14,15,7)         -170.8398         estimate D2E/DX2                !
 ! D24   D(6,14,15,7)           -1.8404         estimate D2E/DX2                !
 --------------------------------------------------------------------------------
 Trust Radius=3.00D-01 FncErr=1.00D-07 GrdErr=1.00D-06 EigMax=2.50D+02 EigMin=1.00D-04
 Number of steps in this run=     72 maximum allowed number of steps=    100.
 GradGradGradGradGradGradGradGradGradGradGradGradGradGradGradGradGradGrad

 Leave Link  103 at Tue Jan 28 15:29:46 2025, MaxMem= 82678120448 cpu:               1.4 elap:               0.1
 (Enter /sysapps/ubuntu-applications/gaussian-new/avx/g16/l202.exe)
                          Input orientation:                          
 ---------------------------------------------------------------------
 Center     Atomic      Atomic             Coordinates (Angstroms)
 Number     Number       Type             X           Y           Z
 ---------------------------------------------------------------------
      1          6           0        4.635040    1.524220   -0.545380
      2          6           0        5.285100    1.664740   -1.858380
      3          6           0        4.512670    2.834090    0.118110
      4          7           0        5.698950    1.829220   -2.926330
      5          7           0        4.353210    3.843560    0.662000
      6          6           0        5.114740    0.554730    1.618740
      7          6           0        6.831110   -1.129230    0.393670
      8          6           0        5.761990   -0.391590    2.399290
      9          1           0        4.342520    1.296840    1.976670
     10          6           0        6.633320   -1.253800    1.773580
     11          1           0        7.505760   -1.804920   -0.190330
     12          1           0        5.560320   -0.452310    3.500190
     13          1           0        7.178270   -2.053600    2.336610
     14          7           0        5.425940    0.626270    0.323330
     15          7           0        6.239160   -0.180610   -0.314370
 ---------------------------------------------------------------------
                    Distance matrix (angstroms):
                    1          2          3          4          5
     1  C    0.000000
     2  C    1.471833   0.000000
     3  C    1.473415   2.422920   0.000000
     4  N    2.625615   1.157084   3.418426   0.000000
     5  N    2.629930   3.459478   1.157702   4.329514   0.000000
     6  C    2.419388   3.653972   2.794613   4.756394   3.508801
     7  C    3.570061   3.907447   4.599892   4.588748   5.562430
     8  C    3.689367   4.752228   4.143621   5.770459   4.789502
     9  H    2.549119   3.966285   2.417919   5.114953   2.866052
    10  C    4.133775   4.850434   4.893729   5.698001   5.693645
    11  H    4.410246   4.444352   5.529388   4.894613   6.524597
    12  H    4.596678   5.768182   4.830783   6.820906   5.288377
    13  H    5.251160   5.916763   5.993053   6.705462   6.749947
    14  N    1.478680   2.420354   2.398051   3.475905   3.408284
    15  N    2.352236   2.588342   3.500889   3.339697   4.550170
                    6          7          8          9         10
     6  C    0.000000
     7  C    2.698600   0.000000
     8  C    1.386980   2.389486   0.000000
     9  H    1.129232   3.819003   2.245952   0.000000
    10  C    2.366610   1.399568   1.376276   3.434352   0.000000
    11  H    3.815450   1.119270   3.427006   4.931824   2.218519
    12  H    2.180029   3.423973   1.120865   2.619862   2.185154
    13  H    3.402481   2.179449   2.184503   4.404144   1.119667
    14  N    1.334185   2.249718   2.336360   2.087342   2.663767
    15  N    2.354137   1.323482   2.763359   3.320989   2.380469
                   11         12         13         14         15
    11  H    0.000000
    12  H    4.385684   0.000000
    13  H    2.560179   2.556523   0.000000
    14  N    3.240399   3.357653   3.782282   0.000000
    15  N    2.063503   3.884007   3.379011   1.311123   0.000000
 Stoichiometry    C7H4N4
 Framework group  C1[X(C7H4N4)]
 Deg. of freedom    39
 Full point group                 C1      NOp   1
 Largest Abelian subgroup         C1      NOp   1
 Largest concise Abelian subgroup C1      NOp   1
                         Standard orientation:                         
 ---------------------------------------------------------------------
 Center     Atomic      Atomic             Coordinates (Angstroms)
 Number     Number       Type             X           Y           Z
 ---------------------------------------------------------------------
      1          6           0       -1.226157    0.049565    0.565319
      2          6           0       -1.880827   -1.197606    0.138397
      3          6           0       -1.873275    1.217329   -0.057994
      4          7           0       -2.487512   -2.144611   -0.133555
      5          7           0       -2.373871    2.168951   -0.487055
      6          6           0        0.900231    1.168151    0.281279
      7          6           0        2.011003   -1.242134   -0.207756
      8          6           0        2.267653    1.119016    0.054443
      9          1           0        0.301253    2.090229    0.538502
     10          6           0        2.834908   -0.110919   -0.189726
     11          1           0        2.399189   -2.278101   -0.377601
     12          1           0        2.881906    2.055973    0.088247
     13          1           0        3.934449   -0.229363   -0.364748
     14          7           0        0.200724    0.036787    0.177578
     15          7           0        0.700944   -1.155291   -0.040992
 ---------------------------------------------------------------------
 Rotational constants (GHZ):           1.9538986           0.9501690           0.6569488
 Leave Link  202 at Tue Jan 28 15:29:46 2025, MaxMem= 82678120448 cpu:               3.7 elap:               0.2
 (Enter /sysapps/ubuntu-applications/gaussian-new/avx/g16/l301.exe)
 General basis read from cards:  (5D, 7F)
 Centers:       9     11     12     13
 S 3 1.00
     Exponent=  1.3010701000D+01 Coefficients=  1.9682158000D-02
     Exponent=  1.9622572000D+00 Coefficients=  1.3796524000D-01
     Exponent=  4.4453796000D-01 Coefficients=  4.7831935000D-01
 S 1 1.00
     Exponent=  1.2194962000D-01 Coefficients=  1.0000000000D+00
 P 1 1.00
     Exponent=  8.0000000000D-01 Coefficients=  1.0000000000D+00
 ****
 Centers:       1      2      3      6      7      8     10
 S 5 1.00
     Exponent=  1.2384016938D+03 Coefficients=  5.4568832082D-03
     Exponent=  1.8629004992D+02 Coefficients=  4.0638409211D-02
     Exponent=  4.2251176346D+01 Coefficients=  1.8025593888D-01
     Exponent=  1.1676557932D+01 Coefficients=  4.6315121755D-01
     Exponent=  3.5930506482D+00 Coefficients=  4.4087173314D-01
 S 1 1.00
     Exponent=  4.0245147363D-01 Coefficients=  1.0000000000D+00
 S 1 1.00
     Exponent=  1.3090182668D-01 Coefficients=  1.0000000000D+00
 P 3 1.00
     Exponent=  9.4680970621D+00 Coefficients=  3.8387871728D-02
     Exponent=  2.0103545142D+00 Coefficients=  2.1117025112D-01
     Exponent=  5.4771004707D-01 Coefficients=  5.1328172114D-01
 P 1 1.00
     Exponent=  1.5268613795D-01 Coefficients=  1.0000000000D+00
 D 1 1.00
     Exponent=  8.0000000000D-01 Coefficients=  1.0000000000D+00
 ****
 Centers:       4      5     14     15
 S 5 1.00
     Exponent=  1.7128415853D+03 Coefficients= -5.3934125305D-03
     Exponent=  2.5764812677D+02 Coefficients= -4.0221581118D-02
     Exponent=  5.8458245853D+01 Coefficients= -1.7931144990D-01
     Exponent=  1.6198367905D+01 Coefficients= -4.6376317823D-01
     Exponent=  5.0052600809D+00 Coefficients= -4.4171422662D-01
 S 1 1.00
     Exponent=  5.8731856571D-01 Coefficients=  1.0000000000D+00
 S 1 1.00
     Exponent=  1.8764592253D-01 Coefficients=  1.0000000000D+00
 P 3 1.00
     Exponent=  1.3571470233D+01 Coefficients= -4.0072398852D-02
     Exponent=  2.9257372874D+00 Coefficients= -2.1807045028D-01
     Exponent=  7.9927750754D-01 Coefficients= -5.1294466049D-01
 P 1 1.00
     Exponent=  2.1954348034D-01 Coefficients=  1.0000000000D+00
 D 1 1.00
     Exponent=  1.0000000000D+00 Coefficients=  1.0000000000D+00
 ****
 Ernie: Thresh=  0.10000D-02 Tol=  0.10000D-05 Strict=F.
 There are   185 symmetry adapted cartesian basis functions of A   symmetry.
 There are   174 symmetry adapted basis functions of A   symmetry.
   174 basis functions,   303 primitive gaussians,   185 cartesian basis functions
    37 alpha electrons       37 beta electrons
       nuclear repulsion energy       513.9255007888 Hartrees.
 IExCor= 7252 DFT=T Ex+Corr=MN15 ExCW=0 ScaHFX=  0.440000
 ScaDFX=  1.000000  1.000000  1.000000  1.000000 ScalE2=  1.000000  1.000000
 IRadAn=      5 IRanWt=     -1 IRanGd=            0 ICorTp=0 IEmpDi=  4
 NAtoms=   15 NActive=   15 NUniq=   15 SFac= 1.00D+00 NAtFMM=   60 NAOKFM=F Big=F
 Integral buffers will be    131072 words long.
 Raffenetti 2 integral format.
 Two-electron integral symmetry is turned on.
 ------------------------------------------------------------------------------
 Polarizable Continuum Model (PCM)
 =================================
 Model                : PCM.
 Atomic radii         : SMD-Coulomb.
 Polarization charges : Total charges.
 Charge compensation  : None.
 Solution method      : On-the-fly selection.
 Cavity type          : VdW (van der Waals Surface) (Alpha=1.000).
 Cavity algorithm     : GePol (No added spheres)
                        Default sphere list used, NSphG=   15.
                        Lebedev-Laikov grids with approx.  5.0 points / Ang**2.
                        Smoothing algorithm: York/Karplus (Gamma=1.0000).
                        Polarization charges: spherical gaussians, with
                                              point-specific exponents (IZeta= 3).
                        Self-potential: point-specific (ISelfS= 7).
                        Self-field    : sphere-specific E.n sum rule (ISelfD= 2).
 1st derivatives      : Analytical E(r).r(x)/FMM algorithm (CHGder, D1EAlg=3).
                        Cavity 1st derivative terms included.
 Solvent              : DiChloroEthane, Eps=  10.125000 Eps(inf)=   2.087447
 ------------------------------------------------------------------------------
 Spheres list:
 ISph  on   Nord     Re0    Alpha      Xe            Ye            Ze
    1   C      1    1.8500  1.000     -1.226157      0.049565      0.565319
    2   C      2    1.8500  1.000     -1.880827     -1.197606      0.138397
    3   C      3    1.8500  1.000     -1.873275      1.217329     -0.057994
    4   N      4    1.8900  1.000     -2.487512     -2.144611     -0.133555
    5   N      5    1.8900  1.000     -2.373871      2.168951     -0.487055
    6   C      6    1.8500  1.000      0.900231      1.168151      0.281279
    7   C      7    1.8500  1.000      2.011003     -1.242134     -0.207756
    8   C      8    1.8500  1.000      2.267653      1.119016      0.054443
    9   H      9    1.2000  1.000      0.301253      2.090229      0.538502
   10   C     10    1.8500  1.000      2.834908     -0.110919     -0.189726
   11   H     11    1.2000  1.000      2.399189     -2.278101     -0.377601
   12   H     12    1.2000  1.000      2.881906      2.055973      0.088247
   13   H     13    1.2000  1.000      3.934449     -0.229363     -0.364748
   14   N     14    1.8900  1.000      0.200724      0.036787      0.177578
   15   N     15    1.8900  1.000      0.700944     -1.155291     -0.040992
 ------------------------------------------------------------------------------
 GePol: Number of generator spheres                  =      15
 GePol: Total number of spheres                      =      15
 GePol: Number of exposed spheres                    =      15 (100.00%)
 GePol: Number of points                             =    1527
 GePol: Average weight of points                     =       0.12
 GePol: Minimum weight of points                     =   0.14D-07
 GePol: Maximum weight of points                     =    0.17992
 GePol: Number of points with low weight             =      60
 GePol: Fraction of low-weight points (<1% of avg)   =       3.93%
 GePol: Cavity surface area                          =    180.082 Ang**2
 GePol: Cavity volume                                =    159.501 Ang**3
 ------------------------------------------------------------------------------
 Atomic radii for non-electrostatic terms: SMD-CDS.
 ------------------------------------------------------------------------------
 PCM non-electrostatic energy =         0.0020728886 Hartrees.
 Nuclear repulsion after PCM non-electrostatic terms =      513.9275736774 Hartrees.
 Leave Link  301 at Tue Jan 28 15:29:47 2025, MaxMem= 82678120448 cpu:               8.9 elap:               0.5
 (Enter /sysapps/ubuntu-applications/gaussian-new/avx/g16/l302.exe)
 NPDir=0 NMtPBC=     1 NCelOv=     1 NCel=       1 NClECP=     1 NCelD=      1
         NCelK=      1 NCelE2=     1 NClLst=     1 CellRange=     0.0.
 One-electron integrals computed using PRISM.
 One-electron integral symmetry used in STVInt
 NBasis=   174 RedAO= T EigKep=  5.05D-04  NBF=   174
 NBsUse=   174 1.00D-06 EigRej= -1.00D+00 NBFU=   174
 Precomputing XC quadrature grid using
 IXCGrd= 4 IRadAn=           5 IRanWt=          -1 IRanGd=           0 AccXCQ= 0.00D+00.
 Generated NRdTot=       0 NPtTot=           0 NUsed=           0 NTot=          32
 NSgBfM=   184   184   184   184   184 MxSgAt=    15 MxSgA2=    15.
 Leave Link  302 at Tue Jan 28 15:29:47 2025, MaxMem= 82678120448 cpu:               7.0 elap:               0.4
 (Enter /sysapps/ubuntu-applications/gaussian-new/avx/g16/l303.exe)
 DipDrv:  MaxL=1.
 Leave Link  303 at Tue Jan 28 15:29:47 2025, MaxMem= 82678120448 cpu:               4.3 elap:               0.3
 (Enter /sysapps/ubuntu-applications/gaussian-new/avx/g16/l401.exe)
 ExpMin= 1.22D-01 ExpMax= 1.71D+03 ExpMxC= 2.58D+02 IAcc=3 IRadAn=         5 AccDes= 0.00D+00
 Harris functional with IExCor= 1009 and IRadAn=       5 diagonalized for initial guess.
 HarFok:  IExCor= 1009 AccDes= 0.00D+00 IRadAn=         5 IDoV= 1 UseB2=F ITyADJ=14
 ICtDFT=  3500011 ScaDFX=  1.000000  1.000000  1.000000  1.000000
 FoFCou: FMM=F IPFlag=           0 FMFlag=      100000 FMFlg1=           0
         NFxFlg=           0 DoJE=T BraDBF=F KetDBF=T FulRan=T
         wScrn=  0.000000 ICntrl=       500 IOpCl=  0 I1Cent=   200000004 NGrid=           0
         NMat0=    1 NMatS0=      1 NMatT0=    0 NMatD0=    1 NMtDS0=    0 NMtDT0=    0
 Petite list used in FoFCou.
 Harris En= -487.174150583978    
 JPrj=0 DoOrth=F DoCkMO=F.
 Leave Link  401 at Tue Jan 28 15:29:48 2025, MaxMem= 82678120448 cpu:              10.1 elap:               0.5
 (Enter /sysapps/ubuntu-applications/gaussian-new/avx/g16/l502.exe)
 Integral symmetry usage will be decided dynamically.
 Closed shell SCF:
 Using DIIS extrapolation, IDIIS=  1040.
 NGot= 82678120448 LenX= 82678045589 LenY= 82678010923
 Requested convergence on RMS density matrix=1.00D-08 within 500 cycles.
 Requested convergence on MAX density matrix=1.00D-06.
 Requested convergence on             energy=1.00D-06.
 No special actions if energy rises.
 Fock matrices will be formed incrementally for  20 cycles.

 Cycle   1  Pass 1  IDiag  1:
 FoFJK:  IHMeth= 1 ICntrl=       0 DoSepK=F KAlg= 0 I1Cent=           0 FoldK=F
 IRaf= 940000000 NMat=       1 IRICut=       1 DoRegI=T DoRafI=F ISym2E= 0 IDoP0=0 IntGTp=1.
 FoFCou: FMM=F IPFlag=           0 FMFlag=      100000 FMFlg1=           0
         NFxFlg=           0 DoJE=F BraDBF=F KetDBF=F FulRan=T
         wScrn=  0.000000 ICntrl=         0 IOpCl=  0 I1Cent=           0 NGrid=           0
         NMat0=    1 NMatS0=      1 NMatT0=    0 NMatD0=    1 NMtDS0=    0 NMtDT0=    0
 Symmetry not used in FoFCou.
 Inv3:  Mode=1 IEnd=     6995187.
 Iteration    1 A*A^-1 deviation from unit magnitude is 6.22D-15 for   1505.
 Iteration    1 A*A^-1 deviation from orthogonality  is 2.39D-15 for   1506   1448.
 Iteration    1 A^-1*A deviation from unit magnitude is 6.00D-15 for   1505.
 Iteration    1 A^-1*A deviation from orthogonality  is 3.51D-15 for    280    217.
 E= -486.866291317083    
 DIIS: error= 2.06D-02 at cycle   1 NSaved=   1.
 NSaved= 1 IEnMin= 1 EnMin= -486.866291317083     IErMin= 1 ErrMin= 2.06D-02
 ErrMax= 2.06D-02  0.00D+00 EMaxC= 1.00D-01 BMatC= 1.89D-01 BMatP= 1.89D-01
 IDIUse=3 WtCom= 7.94D-01 WtEn= 2.06D-01
 Coeff-Com:  0.100D+01
 Coeff-En:   0.100D+01
 Coeff:      0.100D+01
 Gap=     0.182 Goal=   None    Shift=    0.000
 GapD=    0.182 DampG=1.000 DampE=0.500 DampFc=0.5000 IDamp=-1.
 Damping current iteration by 5.00D-01
 RMSDP=6.33D-03 MaxDP=1.82D-01              OVMax= 2.28D-01

 Cycle   2  Pass 1  IDiag  1:
 RMSU=  3.16D-03    CP:  9.90D-01
 E= -486.912183532743     Delta-E=       -0.045892215660 Rises=F Damp=T
 DIIS: error= 1.05D-02 at cycle   2 NSaved=   2.
 NSaved= 2 IEnMin= 2 EnMin= -486.912183532743     IErMin= 2 ErrMin= 1.05D-02
 ErrMax= 1.05D-02  0.00D+00 EMaxC= 1.00D-01 BMatC= 3.59D-02 BMatP= 1.89D-01
 IDIUse=3 WtCom= 8.95D-01 WtEn= 1.05D-01
 Coeff-Com:  0.250D+00 0.750D+00
 Coeff-En:   0.370D+00 0.630D+00
 Coeff:      0.262D+00 0.738D+00
 Gap=     0.188 Goal=   None    Shift=    0.000
 RMSDP=2.30D-03 MaxDP=1.02D-01 DE=-4.59D-02 OVMax= 1.64D-01

 Cycle   3  Pass 1  IDiag  1:
 RMSU=  2.11D-03    CP:  9.76D-01  7.41D-01
 E= -487.046126683546     Delta-E=       -0.133943150803 Rises=F Damp=F
 DIIS: error= 7.26D-03 at cycle   3 NSaved=   3.
 NSaved= 3 IEnMin= 3 EnMin= -487.046126683546     IErMin= 3 ErrMin= 7.26D-03
 ErrMax= 7.26D-03  0.00D+00 EMaxC= 1.00D-01 BMatC= 8.20D-03 BMatP= 3.59D-02
 IDIUse=3 WtCom= 9.27D-01 WtEn= 7.26D-02
 Coeff-Com:  0.590D-01 0.321D+00 0.620D+00
 Coeff-En:   0.000D+00 0.000D+00 0.100D+01
 Coeff:      0.547D-01 0.298D+00 0.647D+00
 Gap=     0.189 Goal=   None    Shift=    0.000
 RMSDP=8.59D-04 MaxDP=2.80D-02 DE=-1.34D-01 OVMax= 3.35D-02

 Cycle   4  Pass 1  IDiag  1:
 RMSU=  5.08D-04    CP:  9.82D-01  8.07D-01  6.96D-01
 E= -487.052777937584     Delta-E=       -0.006651254038 Rises=F Damp=F
 DIIS: error= 3.47D-03 at cycle   4 NSaved=   4.
 NSaved= 4 IEnMin= 4 EnMin= -487.052777937584     IErMin= 4 ErrMin= 3.47D-03
 ErrMax= 3.47D-03  0.00D+00 EMaxC= 1.00D-01 BMatC= 2.35D-03 BMatP= 8.20D-03
 IDIUse=3 WtCom= 9.65D-01 WtEn= 3.47D-02
 Coeff-Com:  0.267D-01 0.113D+00 0.381D+00 0.479D+00
 Coeff-En:   0.000D+00 0.000D+00 0.173D+00 0.827D+00
 Coeff:      0.258D-01 0.109D+00 0.374D+00 0.491D+00
 Gap=     0.187 Goal=   None    Shift=    0.000
 RMSDP=2.48D-04 MaxDP=6.40D-03 DE=-6.65D-03 OVMax= 9.47D-03

 Cycle   5  Pass 1  IDiag  1:
 RMSU=  1.78D-04    CP:  9.81D-01  7.88D-01  7.47D-01  7.62D-01
 E= -487.054750554712     Delta-E=       -0.001972617128 Rises=F Damp=F
 DIIS: error= 6.23D-04 at cycle   5 NSaved=   5.
 NSaved= 5 IEnMin= 5 EnMin= -487.054750554712     IErMin= 5 ErrMin= 6.23D-04
 ErrMax= 6.23D-04  0.00D+00 EMaxC= 1.00D-01 BMatC= 1.26D-04 BMatP= 2.35D-03
 IDIUse=3 WtCom= 9.94D-01 WtEn= 6.23D-03
 Coeff-Com:  0.375D-02-0.183D-01 0.629D-01 0.219D+00 0.733D+00
 Coeff-En:   0.000D+00 0.000D+00 0.000D+00 0.000D+00 0.100D+01
 Coeff:      0.373D-02-0.182D-01 0.625D-01 0.218D+00 0.734D+00
 Gap=     0.188 Goal=   None    Shift=    0.000
 RMSDP=1.09D-04 MaxDP=4.08D-03 DE=-1.97D-03 OVMax= 2.82D-03

 Cycle   6  Pass 1  IDiag  1:
 RMSU=  6.36D-05    CP:  9.81D-01  7.72D-01  7.77D-01  7.97D-01  8.34D-01
 E= -487.054868080249     Delta-E=       -0.000117525537 Rises=F Damp=F
 DIIS: error= 1.15D-04 at cycle   6 NSaved=   6.
 NSaved= 6 IEnMin= 6 EnMin= -487.054868080249     IErMin= 6 ErrMin= 1.15D-04
 ErrMax= 1.15D-04  0.00D+00 EMaxC= 1.00D-01 BMatC= 5.83D-06 BMatP= 1.26D-04
 IDIUse=3 WtCom= 9.99D-01 WtEn= 1.15D-03
 Coeff-Com:  0.350D-03-0.137D-01 0.451D-02 0.532D-01 0.279D+00 0.677D+00
 Coeff-En:   0.000D+00 0.000D+00 0.000D+00 0.000D+00 0.000D+00 0.100D+01
 Coeff:      0.350D-03-0.137D-01 0.450D-02 0.531D-01 0.279D+00 0.677D+00
 Gap=     0.188 Goal=   None    Shift=    0.000
 RMSDP=2.02D-05 MaxDP=6.18D-04 DE=-1.18D-04 OVMax= 1.07D-03

 Cycle   7  Pass 1  IDiag  1:
 RMSU=  1.67D-05    CP:  9.81D-01  7.71D-01  7.81D-01  8.04D-01  8.71D-01
                    CP:  1.04D+00
 E= -487.054873839495     Delta-E=       -0.000005759246 Rises=F Damp=F
 DIIS: error= 5.33D-05 at cycle   7 NSaved=   7.
 NSaved= 7 IEnMin= 7 EnMin= -487.054873839495     IErMin= 7 ErrMin= 5.33D-05
 ErrMax= 5.33D-05  0.00D+00 EMaxC= 1.00D-01 BMatC= 8.19D-07 BMatP= 5.83D-06
 IDIUse=1 WtCom= 1.00D+00 WtEn= 0.00D+00
 Coeff-Com: -0.214D-03-0.353D-02-0.469D-02-0.485D-02 0.268D-01 0.290D+00
 Coeff-Com:  0.696D+00
 Coeff:     -0.214D-03-0.353D-02-0.469D-02-0.485D-02 0.268D-01 0.290D+00
 Coeff:      0.696D+00
 Gap=     0.188 Goal=   None    Shift=    0.000
 RMSDP=7.81D-06 MaxDP=1.91D-04 DE=-5.76D-06 OVMax= 5.58D-04

 Cycle   8  Pass 1  IDiag  1:
 RMSU=  6.08D-06    CP:  9.81D-01  7.71D-01  7.82D-01  8.07D-01  8.84D-01
                    CP:  1.09D+00  9.54D-01
 E= -487.054874859510     Delta-E=       -0.000001020015 Rises=F Damp=F
 DIIS: error= 1.41D-05 at cycle   8 NSaved=   8.
 NSaved= 8 IEnMin= 8 EnMin= -487.054874859510     IErMin= 8 ErrMin= 1.41D-05
 ErrMax= 1.41D-05  0.00D+00 EMaxC= 1.00D-01 BMatC= 6.70D-08 BMatP= 8.19D-07
 IDIUse=1 WtCom= 1.00D+00 WtEn= 0.00D+00
 Coeff-Com: -0.600D-04 0.480D-03-0.177D-02-0.823D-02-0.276D-01 0.754D-02
 Coeff-Com:  0.204D+00 0.826D+00
 Coeff:     -0.600D-04 0.480D-03-0.177D-02-0.823D-02-0.276D-01 0.754D-02
 Coeff:      0.204D+00 0.826D+00
 Gap=     0.188 Goal=   None    Shift=    0.000
 RMSDP=4.26D-06 MaxDP=1.29D-04 DE=-1.02D-06 OVMax= 2.77D-04

 Cycle   9  Pass 1  IDiag  1:
 RMSU=  2.05D-06    CP:  9.81D-01  7.71D-01  7.83D-01  8.07D-01  8.90D-01
                    CP:  1.13D+00  1.06D+00  1.17D+00
 E= -487.054874970884     Delta-E=       -0.000000111374 Rises=F Damp=F
 DIIS: error= 8.59D-06 at cycle   9 NSaved=   9.
 NSaved= 9 IEnMin= 9 EnMin= -487.054874970884     IErMin= 9 ErrMin= 8.59D-06
 ErrMax= 8.59D-06  0.00D+00 EMaxC= 1.00D-01 BMatC= 2.22D-08 BMatP= 6.70D-08
 IDIUse=1 WtCom= 1.00D+00 WtEn= 0.00D+00
 Coeff-Com:  0.871D-05 0.629D-03-0.246D-03-0.358D-02-0.177D-01-0.253D-01
 Coeff-Com:  0.330D-01 0.433D+00 0.580D+00
 Coeff:      0.871D-05 0.629D-03-0.246D-03-0.358D-02-0.177D-01-0.253D-01
 Coeff:      0.330D-01 0.433D+00 0.580D+00
 Gap=     0.188 Goal=   None    Shift=    0.000
 RMSDP=1.42D-06 MaxDP=3.85D-05 DE=-1.11D-07 OVMax= 1.22D-04

 Cycle  10  Pass 1  IDiag  1:
 RMSU=  8.75D-07    CP:  9.81D-01  7.71D-01  7.83D-01  8.07D-01  8.89D-01
                    CP:  1.13D+00  1.09D+00  1.28D+00  9.11D-01
 E= -487.054875000308     Delta-E=       -0.000000029424 Rises=F Damp=F
 DIIS: error= 2.78D-06 at cycle  10 NSaved=  10.
 NSaved=10 IEnMin=10 EnMin= -487.054875000308     IErMin=10 ErrMin= 2.78D-06
 ErrMax= 2.78D-06  0.00D+00 EMaxC= 1.00D-01 BMatC= 3.10D-09 BMatP= 2.22D-08
 IDIUse=1 WtCom= 1.00D+00 WtEn= 0.00D+00
 Coeff-Com:  0.203D-04 0.139D-03 0.349D-03 0.513D-03-0.130D-02-0.106D-01
 Coeff-Com: -0.334D-01-0.531D-01 0.241D+00 0.857D+00
 Coeff:      0.203D-04 0.139D-03 0.349D-03 0.513D-03-0.130D-02-0.106D-01
 Coeff:     -0.334D-01-0.531D-01 0.241D+00 0.857D+00
 Gap=     0.188 Goal=   None    Shift=    0.000
 RMSDP=8.35D-07 MaxDP=1.89D-05 DE=-2.94D-08 OVMax= 7.68D-05

 Cycle  11  Pass 1  IDiag  1:
 RMSU=  3.05D-07    CP:  9.81D-01  7.71D-01  7.83D-01  8.07D-01  8.90D-01
                    CP:  1.14D+00  1.11D+00  1.36D+00  1.12D+00  1.13D+00
 E= -487.054875005913     Delta-E=       -0.000000005605 Rises=F Damp=F
 DIIS: error= 1.09D-06 at cycle  11 NSaved=  11.
 NSaved=11 IEnMin=11 EnMin= -487.054875005913     IErMin=11 ErrMin= 1.09D-06
 ErrMax= 1.09D-06  0.00D+00 EMaxC= 1.00D-01 BMatC= 5.91D-10 BMatP= 3.10D-09
 IDIUse=1 WtCom= 1.00D+00 WtEn= 0.00D+00
 Coeff-Com:  0.985D-05 0.229D-04 0.220D-03 0.633D-03 0.805D-03-0.381D-02
 Coeff-Com: -0.235D-01-0.785D-01 0.821D-01 0.476D+00 0.546D+00
 Coeff:      0.985D-05 0.229D-04 0.220D-03 0.633D-03 0.805D-03-0.381D-02
 Coeff:     -0.235D-01-0.785D-01 0.821D-01 0.476D+00 0.546D+00
 Gap=     0.188 Goal=   None    Shift=    0.000
 RMSDP=2.11D-07 MaxDP=4.56D-06 DE=-5.60D-09 OVMax= 1.83D-05

 Cycle  12  Pass 1  IDiag  1:
 RMSU=  1.27D-07    CP:  9.81D-01  7.71D-01  7.83D-01  8.07D-01  8.90D-01
                    CP:  1.14D+00  1.11D+00  1.37D+00  1.16D+00  1.21D+00
                    CP:  9.23D-01
 E= -487.054875006614     Delta-E=       -0.000000000701 Rises=F Damp=F
 DIIS: error= 3.17D-07 at cycle  12 NSaved=  12.
 NSaved=12 IEnMin=12 EnMin= -487.054875006614     IErMin=12 ErrMin= 3.17D-07
 ErrMax= 3.17D-07  0.00D+00 EMaxC= 1.00D-01 BMatC= 4.19D-11 BMatP= 5.91D-10
 IDIUse=1 WtCom= 1.00D+00 WtEn= 0.00D+00
 Coeff-Com: -0.403D-06-0.166D-04 0.144D-04 0.132D-03 0.431D-03 0.827D-03
 Coeff-Com: -0.181D-02-0.163D-01-0.879D-02 0.703D-02 0.202D+00 0.817D+00
 Coeff:     -0.403D-06-0.166D-04 0.144D-04 0.132D-03 0.431D-03 0.827D-03
 Coeff:     -0.181D-02-0.163D-01-0.879D-02 0.703D-02 0.202D+00 0.817D+00
 Gap=     0.188 Goal=   None    Shift=    0.000
 RMSDP=8.99D-08 MaxDP=2.26D-06 DE=-7.01D-10 OVMax= 7.70D-06

 Cycle  13  Pass 1  IDiag  1:
 RMSU=  5.00D-08    CP:  9.81D-01  7.71D-01  7.83D-01  8.07D-01  8.90D-01
                    CP:  1.14D+00  1.12D+00  1.38D+00  1.18D+00  1.25D+00
                    CP:  1.04D+00  1.10D+00
 E= -487.054875006678     Delta-E=       -0.000000000065 Rises=F Damp=F
 DIIS: error= 1.76D-07 at cycle  13 NSaved=  13.
 NSaved=13 IEnMin=13 EnMin= -487.054875006678     IErMin=13 ErrMin= 1.76D-07
 ErrMax= 1.76D-07  0.00D+00 EMaxC= 1.00D-01 BMatC= 7.88D-12 BMatP= 4.19D-11
 IDIUse=1 WtCom= 1.00D+00 WtEn= 0.00D+00
 Coeff-Com: -0.119D-05-0.112D-04-0.156D-04 0.770D-05 0.142D-03 0.855D-03
 Coeff-Com:  0.155D-02 0.531D-03-0.137D-01-0.529D-01 0.323D-01 0.389D+00
 Coeff-Com:  0.642D+00
 Coeff:     -0.119D-05-0.112D-04-0.156D-04 0.770D-05 0.142D-03 0.855D-03
 Coeff:      0.155D-02 0.531D-03-0.137D-01-0.529D-01 0.323D-01 0.389D+00
 Coeff:      0.642D+00
 Gap=     0.188 Goal=   None    Shift=    0.000
 RMSDP=2.75D-08 MaxDP=4.87D-07 DE=-6.46D-11 OVMax= 1.58D-06

 Cycle  14  Pass 1  IDiag  1:
 RMSU=  1.65D-08    CP:  9.81D-01  7.71D-01  7.83D-01  8.07D-01  8.90D-01
                    CP:  1.14D+00  1.12D+00  1.38D+00  1.18D+00  1.25D+00
                    CP:  1.07D+00  1.17D+00  9.09D-01
 E= -487.054875006683     Delta-E=       -0.000000000005 Rises=F Damp=F
 DIIS: error= 4.71D-08 at cycle  14 NSaved=  14.
 NSaved=14 IEnMin=14 EnMin= -487.054875006683     IErMin=14 ErrMin= 4.71D-08
 ErrMax= 4.71D-08  0.00D+00 EMaxC= 1.00D-01 BMatC= 5.73D-13 BMatP= 7.88D-12
 IDIUse=1 WtCom= 1.00D+00 WtEn= 0.00D+00
 Coeff-Com: -0.377D-06-0.209D-05-0.798D-05-0.120D-04-0.672D-05 0.216D-03
 Coeff-Com:  0.737D-03 0.236D-02-0.400D-02-0.215D-01-0.136D-01 0.472D-01
 Coeff-Com:  0.245D+00 0.743D+00
 Coeff:     -0.377D-06-0.209D-05-0.798D-05-0.120D-04-0.672D-05 0.216D-03
 Coeff:      0.737D-03 0.236D-02-0.400D-02-0.215D-01-0.136D-01 0.472D-01
 Coeff:      0.245D+00 0.743D+00
 Gap=     0.188 Goal=   None    Shift=    0.000
 RMSDP=8.24D-09 MaxDP=2.08D-07 DE=-4.89D-12 OVMax= 5.65D-07

 Error on total polarization charges =  0.02309
 SCF Done:  E(RMN15) =  -487.054875007     A.U. after   14 cycles
            NFock= 14  Conv=0.82D-08     -V/T= 2.0116
 KE= 4.814662387827D+02 PE=-2.157431045555D+03 EE= 6.749823580881D+02
 SMD-CDS (non-electrostatic) energy       (kcal/mol) =       1.30
 (included in total energy above)
 Leave Link  502 at Tue Jan 28 15:30:01 2025, MaxMem= 82678120448 cpu:             312.7 elap:              13.4
 (Enter /sysapps/ubuntu-applications/gaussian-new/avx/g16/l601.exe)
 Copying SCF densities to generalized density rwf, IOpCl= 0 IROHF=0.

 **********************************************************************

            Population analysis using the SCF density.

 **********************************************************************

 Orbital symmetries:
       Occupied  (A) (A) (A) (A) (A) (A) (A) (A) (A) (A) (A) (A)
                 (A) (A) (A) (A) (A) (A) (A) (A) (A) (A) (A) (A)
                 (A) (A) (A) (A) (A) (A) (A) (A) (A) (A) (A) (A)
                 (A)
       Virtual   (A) (A) (A) (A) (A) (A) (A) (A) (A) (A) (A) (A)
                 (A) (A) (A) (A) (A) (A) (A) (A) (A) (A) (A) (A)
                 (A) (A) (A) (A) (A) (A) (A) (A) (A) (A) (A) (A)
                 (A) (A) (A) (A) (A) (A) (A) (A) (A) (A) (A) (A)
                 (A) (A) (A) (A) (A) (A) (A) (A) (A) (A) (A) (A)
                 (A) (A) (A) (A) (A) (A) (A) (A) (A) (A) (A) (A)
                 (A) (A) (A) (A) (A) (A) (A) (A) (A) (A) (A) (A)
                 (A) (A) (A) (A) (A) (A) (A) (A) (A) (A) (A) (A)
                 (A) (A) (A) (A) (A) (A) (A) (A) (A) (A) (A) (A)
                 (A) (A) (A) (A) (A) (A) (A) (A) (A) (A) (A) (A)
                 (A) (A) (A) (A) (A) (A) (A) (A) (A) (A) (A) (A)
                 (A) (A) (A) (A) (A)
 The electronic state is 1-A.
 Alpha  occ. eigenvalues --  -14.26618 -14.17975 -14.09935 -14.09339 -10.14499
 Alpha  occ. eigenvalues --  -10.13245 -10.12146 -10.11113 -10.10428 -10.10063
 Alpha  occ. eigenvalues --  -10.09700  -1.14848  -0.95465  -0.93109  -0.92942
 Alpha  occ. eigenvalues --   -0.90169  -0.80844  -0.75569  -0.71887  -0.63190
 Alpha  occ. eigenvalues --   -0.60563  -0.57729  -0.55742  -0.54537  -0.52772
 Alpha  occ. eigenvalues --   -0.48091  -0.44855  -0.43575  -0.41765  -0.41125
 Alpha  occ. eigenvalues --   -0.39789  -0.39219  -0.38207  -0.37833  -0.37240
 Alpha  occ. eigenvalues --   -0.35794  -0.25649
 Alpha virt. eigenvalues --   -0.06833  -0.03846   0.02305   0.08222   0.09679
 Alpha virt. eigenvalues --    0.10524   0.10890   0.12802   0.13365   0.15237
 Alpha virt. eigenvalues --    0.17275   0.19081   0.22569   0.23377   0.26610
 Alpha virt. eigenvalues --    0.28602   0.29890   0.31782   0.35604   0.37346
 Alpha virt. eigenvalues --    0.37506   0.38795   0.43602   0.43723   0.46646
 Alpha virt. eigenvalues --    0.47355   0.48148   0.49910   0.50916   0.51782
 Alpha virt. eigenvalues --    0.54018   0.55090   0.56565   0.59541   0.61153
 Alpha virt. eigenvalues --    0.63531   0.63799   0.65209   0.65798   0.68756
 Alpha virt. eigenvalues --    0.68845   0.70078   0.71097   0.71494   0.71916
 Alpha virt. eigenvalues --    0.72829   0.74254   0.76666   0.77726   0.81371
 Alpha virt. eigenvalues --    0.84136   0.87877   0.88228   0.90347   0.92577
 Alpha virt. eigenvalues --    0.93364   0.94200   0.96852   0.98014   1.00604
 Alpha virt. eigenvalues --    1.02987   1.05598   1.10776   1.14799   1.15922
 Alpha virt. eigenvalues --    1.18324   1.19689   1.21682   1.23339   1.26222
 Alpha virt. eigenvalues --    1.28905   1.32924   1.38189   1.40989   1.43662
 Alpha virt. eigenvalues --    1.50680   1.54751   1.60114   1.62300   1.65396
 Alpha virt. eigenvalues --    1.66346   1.66668   1.68055   1.69151   1.69997
 Alpha virt. eigenvalues --    1.72947   1.73575   1.74339   1.75801   1.78567
 Alpha virt. eigenvalues --    1.81424   1.84312   1.88278   1.89590   1.90874
 Alpha virt. eigenvalues --    1.95448   1.98673   2.00763   2.02705   2.05903
 Alpha virt. eigenvalues --    2.09375   2.10981   2.11909   2.15261   2.20269
 Alpha virt. eigenvalues --    2.22000   2.24671   2.25829   2.26357   2.26739
 Alpha virt. eigenvalues --    2.27080   2.31934   2.34820   2.37814   2.42835
 Alpha virt. eigenvalues --    2.45822   2.56913   2.59235   2.60746   2.61674
 Alpha virt. eigenvalues --    2.63601   2.79133   2.80443   2.81950   2.84670
 Alpha virt. eigenvalues --    2.86895   2.92069   2.93794   2.95579   2.98612
 Alpha virt. eigenvalues --    3.00190   3.07120   3.11282   3.33926   3.35908
 Alpha virt. eigenvalues --    3.43020   3.57670
          Condensed to atoms (all electrons):
               1          2          3          4          5          6
     1  C    5.417628   0.271184   0.306276  -0.036667  -0.037624  -0.110501
     2  C    0.271184   5.022868  -0.013537   0.936697   0.001813   0.011986
     3  C    0.306276  -0.013537   5.012856  -0.001126   0.944924   0.013371
     4  N   -0.036667   0.936697  -0.001126   6.124885   0.000018  -0.000022
     5  N   -0.037624   0.001813   0.944924   0.000018   6.109128   0.000181
     6  C   -0.110501   0.011986   0.013371  -0.000022   0.000181   4.899176
     7  C    0.009932  -0.000655  -0.000939  -0.000086  -0.000004  -0.086015
     8  C    0.007566  -0.001106   0.000822  -0.000003   0.000067   0.334354
     9  H   -0.014287   0.002781   0.015509   0.000025   0.003686   0.411093
    10  C    0.000819   0.000066  -0.000099  -0.000012  -0.000004   0.041781
    11  H   -0.000301   0.000097   0.000014   0.000054   0.000000  -0.001320
    12  H   -0.000097   0.000000   0.000012  -0.000000   0.000001  -0.049019
    13  H    0.000069  -0.000005  -0.000004   0.000000  -0.000000   0.011403
    14  N    0.311730  -0.033102  -0.052567   0.000929  -0.002083   0.384084
    15  N   -0.113422   0.025705   0.011178  -0.006634   0.000045  -0.020296
               7          8          9         10         11         12
     1  C    0.009932   0.007566  -0.014287   0.000819  -0.000301  -0.000097
     2  C   -0.000655  -0.001106   0.002781   0.000066   0.000097   0.000000
     3  C   -0.000939   0.000822   0.015509  -0.000099   0.000014   0.000012
     4  N   -0.000086  -0.000003   0.000025  -0.000012   0.000054  -0.000000
     5  N   -0.000004   0.000067   0.003686  -0.000004   0.000000   0.000001
     6  C   -0.086015   0.334354   0.411093   0.041781  -0.001320  -0.049019
     7  C    4.792019   0.057685  -0.001467   0.330112   0.426455   0.009917
     8  C    0.057685   4.936918  -0.043321   0.329018   0.009256   0.437485
     9  H   -0.001467  -0.043321   0.537450   0.008822   0.000019  -0.007028
    10  C    0.330112   0.329018   0.008822   4.985761  -0.058271  -0.048359
    11  H    0.426455   0.009256   0.000019  -0.058271   0.575130  -0.000116
    12  H    0.009917   0.437485  -0.007028  -0.048359  -0.000116   0.570700
    13  H   -0.047628  -0.055907  -0.000086   0.433871  -0.007272  -0.009971
    14  N   -0.026738   0.012336  -0.030650  -0.064287   0.007382   0.004054
    15  N    0.492116  -0.048684   0.003786   0.002853  -0.041717  -0.000240
              13         14         15
     1  C    0.000069   0.311730  -0.113422
     2  C   -0.000005  -0.033102   0.025705
     3  C   -0.000004  -0.052567   0.011178
     4  N    0.000000   0.000929  -0.006634
     5  N   -0.000000  -0.002083   0.000045
     6  C    0.011403   0.384084  -0.020296
     7  C   -0.047628  -0.026738   0.492116
     8  C   -0.055907   0.012336  -0.048684
     9  H   -0.000086  -0.030650   0.003786
    10  C    0.433871  -0.064287   0.002853
    11  H   -0.007272   0.007382  -0.041717
    12  H   -0.009971   0.004054  -0.000240
    13  H    0.588764  -0.000004   0.004676
    14  N   -0.000004   6.324860   0.267089
    15  N    0.004676   0.267089   6.454012
 Mulliken charges:
               1
     1  C   -0.012306
     2  C   -0.224793
     3  C   -0.236689
     4  N   -0.018058
     5  N   -0.020149
     6  C    0.159743
     7  C    0.045297
     8  C    0.023515
     9  H    0.113667
    10  C    0.037929
    11  H    0.090590
    12  H    0.092660
    13  H    0.082093
    14  N   -0.103032
    15  N   -0.030467
 Sum of Mulliken charges =  -0.00000
 Mulliken charges with hydrogens summed into heavy atoms:
               1
     1  C   -0.012306
     2  C   -0.224793
     3  C   -0.236689
     4  N   -0.018058
     5  N   -0.020149
     6  C    0.273410
     7  C    0.135887
     8  C    0.116175
    10  C    0.120022
    14  N   -0.103032
    15  N   -0.030467
 Electronic spatial extent (au):  <R**2>=           1618.3169
 Charge=              0.0000 electrons
 Dipole moment (field-independent basis, Debye):
    X=             13.9839    Y=              2.3420    Z=              0.5660  Tot=             14.1899
 Quadrupole moment (field-independent basis, Debye-Ang):
   XX=            -61.4108   YY=            -71.5432   ZZ=            -64.3963
   XY=             -0.6263   XZ=             -3.5620   YZ=              3.1846
 Traceless Quadrupole moment (field-independent basis, Debye-Ang):
   XX=              4.3726   YY=             -5.7598   ZZ=              1.3871
   XY=             -0.6263   XZ=             -3.5620   YZ=              3.1846
 Octapole moment (field-independent basis, Debye-Ang**2):
  XXX=            122.5391  YYY=              7.9714  ZZZ=             -3.4021  XYY=             70.9369
  XXY=              1.8351  XXZ=              1.7255  XZZ=              6.1195  YZZ=             -1.9826
  YYZ=              8.8246  XYZ=             -0.8322
 Hexadecapole moment (field-independent basis, Debye-Ang**3):
 XXXX=          -1338.0835 YYYY=           -769.5236 ZZZZ=            -97.0897 XXXY=            -11.9635
 XXXZ=            -40.4867 YYYX=             -4.5329 YYYZ=             20.4036 ZZZX=              4.2055
 ZZZY=              1.9029 XXYY=           -433.4785 XXZZ=           -266.4933 YYZZ=           -137.0585
 XXYZ=             15.7640 YYXZ=            -22.6881 ZZXY=              1.9740
 N-N= 5.139275736774D+02 E-N=-2.157431047659D+03  KE= 4.814662387827D+02
 No NMR shielding tensors so no spin-rotation constants.
 Leave Link  601 at Tue Jan 28 15:30:01 2025, MaxMem= 82678120448 cpu:               5.2 elap:               0.3
 (Enter /sysapps/ubuntu-applications/gaussian-new/avx/g16/l701.exe)
 ... and contract with generalized density number  0.
 Compute integral first derivatives.
 D1PCM: PCM CHGder 1st derivatives, ID1Alg=3 FixD1E=F DoIter=F DoCFld=F I1PDM=0.
 GePol: Maximum number of non-zero 1st derivatives   =     255
 Leave Link  701 at Tue Jan 28 15:30:02 2025, MaxMem= 82678120448 cpu:              15.8 elap:               0.8
 (Enter /sysapps/ubuntu-applications/gaussian-new/avx/g16/l702.exe)
 L702 exits ... SP integral derivatives will be done elsewhere.
 Leave Link  702 at Tue Jan 28 15:30:02 2025, MaxMem= 82678120448 cpu:               2.1 elap:               0.1
 (Enter /sysapps/ubuntu-applications/gaussian-new/avx/g16/l703.exe)
 Integral derivatives from FoFJK, PRISM(SPDF).
 Compute integral first derivatives, UseDBF=F ICtDFT=           0.
 Calling FoFJK, ICntrl=      2127 FMM=F ISym2X=0 I1Cent= 0 IOpClX= 0 NMat=1 NMatS=1 NMatT=0.
 FoFJK:  IHMeth= 1 ICntrl=    2127 DoSepK=F KAlg= 0 I1Cent=           0 FoldK=F
 IRaf=         0 NMat=       1 IRICut=       1 DoRegI=T DoRafI=F ISym2E= 0 IDoP0=0 IntGTp=1.
 FoFCou: FMM=F IPFlag=           0 FMFlag=      100000 FMFlg1=         800
         NFxFlg=           0 DoJE=F BraDBF=F KetDBF=F FulRan=T
         wScrn=  0.000000 ICntrl=      2127 IOpCl=  0 I1Cent=           0 NGrid=           0
         NMat0=    1 NMatS0=      1 NMatT0=    0 NMatD0=    1 NMtDS0=    0 NMtDT0=    0
 Symmetry not used in FoFCou.
 Leave Link  703 at Tue Jan 28 15:30:04 2025, MaxMem= 82678120448 cpu:              29.1 elap:               1.3
 (Enter /sysapps/ubuntu-applications/gaussian-new/avx/g16/l716.exe)
 Dipole        = 5.50167769D+00 9.21401001D-01 2.22681762D-01
 ***** Axes restored to original set *****
 -------------------------------------------------------------------
 Center     Atomic                   Forces (Hartrees/Bohr)
 Number     Number              X              Y              Z
 -------------------------------------------------------------------
      1        6           0.046733279    0.031344551    0.002618009
      2        6          -0.026840666   -0.005846214    0.034535318
      3        6          -0.007200356   -0.038021958   -0.022411386
      4        7           0.007045861    0.001624563   -0.015595262
      5        7          -0.001791106    0.015373637    0.007969054
      6        6          -0.010402779    0.014777267    0.017048883
      7        6           0.010096183   -0.005708305   -0.009575460
      8        6          -0.008536904    0.003609317    0.026449686
      9        1           0.017393117   -0.018137884   -0.004776376
     10        6           0.019734438   -0.026279179    0.007461111
     11        1          -0.010506624    0.010314732    0.010879273
     12        1           0.002576017    0.001458072   -0.019886114
     13        1          -0.009782551    0.013706930   -0.008879350
     14        7          -0.034513960    0.008784236   -0.029675916
     15        7           0.005996051   -0.006999765    0.003838529
 -------------------------------------------------------------------
 Cartesian Forces:  Max     0.046733279 RMS     0.017943395
 Leave Link  716 at Tue Jan 28 15:30:04 2025, MaxMem= 82678120448 cpu:               2.0 elap:               0.1
 (Enter /sysapps/ubuntu-applications/gaussian-new/avx/g16/l103.exe)

 GradGradGradGradGradGradGradGradGradGradGradGradGradGradGradGradGradGrad
 Berny optimization.
 FormGI is forming the generalized inverse of G from B-inverse, IUseBI=4.
 Internal  Forces:  Max     0.026026454 RMS     0.009749140
 Search for a local minimum.
 Step number   1 out of a maximum of   72
 All quantities printed in internal units (Hartrees-Bohrs-Radians)
 RMS Force = .97491D-02 SwitMx=.10000D-02 MixMth= 1
 Mixed Optimization -- RFO/linear search
 Second derivative matrix not updated -- first step.
 ITU=  0
     Eigenvalues ---    0.00651   0.01990   0.02211   0.02271   0.02295
     Eigenvalues ---    0.02336   0.02400   0.02455   0.02544   0.04897
     Eigenvalues ---    0.04897   0.04905   0.04905   0.07995   0.15997
     Eigenvalues ---    0.15999   0.15999   0.15999   0.21990   0.22424
     Eigenvalues ---    0.24285   0.24742   0.25000   0.25000   0.30646
     Eigenvalues ---    0.31476   0.31598   0.31638   0.34721   0.35335
     Eigenvalues ---    0.35522   0.43280   0.46033   0.48438   0.56307
     Eigenvalues ---    0.59227   0.62683   1.29310   1.29721
 RFO step:  Lambda=-2.14011779D-02 EMin= 6.50996911D-03
 Linear search not attempted -- first point.
 Iteration  1 RMS(Cart)=  0.06671784 RMS(Int)=  0.00450987
 Iteration  2 RMS(Cart)=  0.00604158 RMS(Int)=  0.00294888
 Iteration  3 RMS(Cart)=  0.00005186 RMS(Int)=  0.00294880
 Iteration  4 RMS(Cart)=  0.00000113 RMS(Int)=  0.00294880
 Iteration  5 RMS(Cart)=  0.00000002 RMS(Int)=  0.00294880
 ITry= 1 IFail=0 DXMaxC= 2.27D-01 DCOld= 1.00D+10 DXMaxT= 3.00D-01 DXLimC= 3.00D+00 Rises=F
 Variable       Old X    -DE/DX   Delta X   Delta X   Delta X     New X
                                 (Linear)    (Quad)   (Total)
    R1        2.78136  -0.02603   0.00000  -0.06911  -0.06911   2.71226
    R2        2.78435  -0.02590   0.00000  -0.06911  -0.06911   2.71524
    R3        2.79430  -0.01107   0.00000  -0.03002  -0.03002   2.76428
    R4        2.18657   0.01715   0.00000   0.01301   0.01301   2.19958
    R5        2.18774   0.01739   0.00000   0.01323   0.01323   2.20097
    R6        2.62101   0.00446   0.00000   0.00941   0.00940   2.63041
    R7        2.13394  -0.02533   0.00000  -0.07726  -0.07726   2.05668
    R8        2.52124   0.01540   0.00000   0.02596   0.02617   2.54741
    R9        2.64480   0.00005   0.00000  -0.00063  -0.00084   2.64396
   R10        2.11511  -0.01824   0.00000  -0.05400  -0.05400   2.06112
   R11        2.50102   0.00274   0.00000   0.00398   0.00401   2.50503
   R12        2.60078   0.00919   0.00000   0.01746   0.01722   2.61801
   R13        2.11813  -0.02007   0.00000  -0.05971  -0.05971   2.05841
   R14        2.11586  -0.01902   0.00000  -0.05637  -0.05637   2.05949
   R15        2.47766   0.00795   0.00000   0.01219   0.01243   2.49009
    A1        1.93213  -0.00168   0.00000   0.06156   0.04686   1.97898
    A2        1.92392   0.01386   0.00000   0.08518   0.07492   1.99884
    A3        1.89624   0.02196   0.00000   0.11597   0.10573   2.00197
    A4        2.20078  -0.00654   0.00000  -0.03310  -0.03326   2.16752
    A5        2.06479   0.00548   0.00000   0.02430   0.02457   2.08936
    A6        2.01753   0.00107   0.00000   0.00893   0.00877   2.02630
    A7        2.14825  -0.00407   0.00000  -0.01758  -0.01757   2.13068
    A8        2.12711   0.00475   0.00000   0.01660   0.01652   2.14362
    A9        2.00772  -0.00067   0.00000   0.00115   0.00115   2.00888
   A10        2.05672   0.00172   0.00000   0.00686   0.00671   2.06343
   A11        2.10104  -0.00189   0.00000  -0.00908  -0.00901   2.09203
   A12        2.12529   0.00017   0.00000   0.00229   0.00236   2.12765
   A13        2.07369  -0.00492   0.00000  -0.02308  -0.02344   2.05026
   A14        2.08356   0.00336   0.00000   0.01654   0.01670   2.10026
   A15        2.12590   0.00156   0.00000   0.00660   0.00677   2.13266
   A16        2.06942   0.00988   0.00000   0.04058   0.03907   2.10849
   A17        2.00394   0.00454   0.00000   0.02065   0.01910   2.02304
   A18        2.19434  -0.01376   0.00000  -0.04549  -0.04646   2.14788
   A19        2.04690   0.00685   0.00000   0.02359   0.02415   2.07104
   A20        3.23420  -0.00270   0.00000  -0.03827  -0.03827   3.19593
   A21        3.11132   0.00073   0.00000   0.01032   0.01032   3.12164
   A22        3.10016   0.00050   0.00000   0.00711   0.00711   3.10727
   A23        3.19506  -0.00121   0.00000  -0.01722  -0.01722   3.17784
    D1        2.94963   0.00887   0.00000   0.04882   0.05222   3.00185
    D2       -0.36928   0.01110   0.00000   0.13293   0.13912  -0.23016
    D3        0.82962  -0.01169   0.00000  -0.15410  -0.16029   0.66933
    D4       -2.48929  -0.00946   0.00000  -0.06999  -0.07339  -2.56268
    D5        3.09203   0.00042   0.00000   0.01386   0.01425   3.10628
    D6       -0.03262   0.00030   0.00000   0.00964   0.00991  -0.02271
    D7       -0.06365   0.00096   0.00000   0.02536   0.02560  -0.03805
    D8        3.09488   0.00084   0.00000   0.02114   0.02126   3.11614
    D9        3.02296   0.00274   0.00000   0.05991   0.05938   3.08233
   D10        0.07987  -0.00218   0.00000  -0.04301  -0.04207   0.03780
   D11       -0.13126   0.00315   0.00000   0.06985   0.06948  -0.06179
   D12       -3.07435  -0.00176   0.00000  -0.03306  -0.03197  -3.10632
   D13       -3.11852  -0.00034   0.00000  -0.00916  -0.00923  -3.12775
   D14        0.01415  -0.00007   0.00000  -0.00141  -0.00134   0.01281
   D15        0.03963  -0.00090   0.00000  -0.02201  -0.02207   0.01756
   D16       -3.11088  -0.00064   0.00000  -0.01425  -0.01418  -3.12506
   D17       -0.02948   0.00041   0.00000   0.00951   0.00965  -0.01982
   D18        3.12743  -0.00008   0.00000  -0.00219  -0.00218   3.12525
   D19        0.00853   0.00007   0.00000   0.00301   0.00310   0.01164
   D20       -3.12391  -0.00021   0.00000  -0.00499  -0.00499  -3.12890
   D21        3.13294   0.00018   0.00000   0.00718   0.00741   3.14035
   D22        0.00050  -0.00010   0.00000  -0.00083  -0.00068  -0.00019
   D23       -2.98172  -0.00407   0.00000  -0.07734  -0.07570  -3.05742
   D24       -0.03212   0.00132   0.00000   0.02455   0.02362  -0.00850
         Item               Value     Threshold  Converged?
 Maximum Force            0.026026     0.000450     NO 
 RMS     Force            0.009749     0.000300     NO 
 Maximum Displacement     0.226656     0.001800     NO 
 RMS     Displacement     0.064247     0.001200     NO 
 Predicted change in Energy=-1.263452D-02
 Lowest energy point so far.  Saving SCF results.
 GradGradGradGradGradGradGradGradGradGradGradGradGradGradGradGradGradGrad

 Leave Link  103 at Tue Jan 28 15:30:05 2025, MaxMem= 82678120448 cpu:              16.7 elap:               0.9
 (Enter /sysapps/ubuntu-applications/gaussian-new/avx/g16/l202.exe)
                          Input orientation:                          
 ---------------------------------------------------------------------
 Center     Atomic      Atomic             Coordinates (Angstroms)
 Number     Number       Type             X           Y           Z
 ---------------------------------------------------------------------
      1          6           0        4.741998    1.601691   -0.535468
      2          6           0        5.274156    1.708566   -1.864140
      3          6           0        4.484140    2.874313    0.079727
      4          7           0        5.639828    1.821243   -2.963416
      5          7           0        4.233269    3.889351    0.592850
      6          6           0        5.146459    0.550128    1.634194
      7          6           0        6.839805   -1.146406    0.415100
      8          6           0        5.767333   -0.422404    2.412797
      9          1           0        4.425114    1.270321    2.015626
     10          6           0        6.635354   -1.304532    1.790145
     11          1           0        7.497050   -1.806343   -0.152466
     12          1           0        5.554687   -0.480461    3.479526
     13          1           0        7.146954   -2.097651    2.335096
     14          7           0        5.434176    0.638076    0.320163
     15          7           0        6.257778   -0.188280   -0.292332
 ---------------------------------------------------------------------
                    Distance matrix (angstroms):
                    1          2          3          4          5
     1  C    0.000000
     2  C    1.435264   0.000000
     3  C    1.436845   2.400357   0.000000
     4  N    2.597928   1.163967   3.421299   0.000000
     5  N    2.601018   3.446167   1.164703   4.347701   0.000000
     6  C    2.444750   3.687360   2.873476   4.795535   3.615068
     7  C    3.585584   3.974551   4.672025   4.654165   5.673137
     8  C    3.720288   4.803795   4.237705   5.826995   4.925119
     9  H    2.591969   3.995687   2.514752   5.154600   2.986706
    10  C    4.176051   4.928023   5.001599   5.775627   5.846361
    11  H    4.399057   4.497297   5.571363   4.950767   6.606716
    12  H    4.595214   5.781462   4.894814   6.842264   5.401323
    13  H    5.263942   5.968940   6.074347   6.760428   6.882527
    14  N    1.462794   2.437772   2.441543   3.496293   3.476683
    15  N    2.358113   2.652568   3.558608   3.399225   4.637807
                    6          7          8          9         10
     6  C    0.000000
     7  C    2.689208   0.000000
     8  C    1.391951   2.380161   0.000000
     9  H    1.088350   3.772663   2.196501   0.000000
    10  C    2.383462   1.399126   1.385389   3.400862   0.000000
    11  H    3.777617   1.090697   3.389363   4.858320   2.183592
    12  H    2.152676   3.389059   1.089266   2.546404   2.168166
    13  H    3.391752   2.164623   2.171599   4.342086   1.089838
    14  N    1.348033   2.273584   2.369542   2.071843   2.716137
    15  N    2.343454   1.325603   2.759179   3.288288   2.392758
                   11         12         13         14         15
    11  H    0.000000
    12  H    4.326905   0.000000
    13  H    2.528911   2.541720   0.000000
    14  N    3.233267   3.353688   3.804967   0.000000
    15  N    2.042912   3.847936   3.367449   1.317700   0.000000
 Stoichiometry    C7H4N4
 Framework group  C1[X(C7H4N4)]
 Deg. of freedom    39
 Full point group                 C1      NOp   1
 RotChk:  IX=0 Diff= 1.72D-02
 Largest Abelian subgroup         C1      NOp   1
 Largest concise Abelian subgroup C1      NOp   1
                         Standard orientation:                         
 ---------------------------------------------------------------------
 Center     Atomic      Atomic             Coordinates (Angstroms)
 Number     Number       Type             X           Y           Z
 ---------------------------------------------------------------------
      1          6           0       -1.237413    0.037085    0.428584
      2          6           0       -1.898184   -1.200127    0.124164
      3          6           0       -1.938076    1.192903   -0.058940
      4          7           0       -2.487387   -2.183972   -0.075104
      5          7           0       -2.498834    2.150617   -0.412304
      6          6           0        0.918525    1.176118    0.251565
      7          6           0        2.063105   -1.215105   -0.199917
      8          6           0        2.297457    1.138588    0.065376
      9          1           0        0.354842    2.081978    0.466466
     10          6           0        2.894918   -0.090793   -0.160386
     11          1           0        2.455053   -2.220303   -0.359827
     12          1           0        2.876278    2.060187    0.111421
     13          1           0        3.970238   -0.196358   -0.302820
     14          7           0        0.201382    0.037982    0.164699
     15          7           0        0.747924   -1.141414   -0.051280
 ---------------------------------------------------------------------
 Rotational constants (GHZ):           1.9806547           0.9165376           0.6382010
 Leave Link  202 at Tue Jan 28 15:30:05 2025, MaxMem= 82678120448 cpu:               1.4 elap:               0.1
 (Enter /sysapps/ubuntu-applications/gaussian-new/avx/g16/l301.exe)
 Basis read from rwf:  (5D, 7F)
 No pseudopotential information found on rwf file.
 There are   185 symmetry adapted cartesian basis functions of A   symmetry.
 There are   174 symmetry adapted basis functions of A   symmetry.
   174 basis functions,   303 primitive gaussians,   185 cartesian basis functions
    37 alpha electrons       37 beta electrons
       nuclear repulsion energy       511.7346551161 Hartrees.
 IExCor= 7252 DFT=T Ex+Corr=MN15 ExCW=0 ScaHFX=  0.440000
 ScaDFX=  1.000000  1.000000  1.000000  1.000000 ScalE2=  1.000000  1.000000
 IRadAn=      5 IRanWt=     -1 IRanGd=            0 ICorTp=0 IEmpDi=  4
 NAtoms=   15 NActive=   15 NUniq=   15 SFac= 1.00D+00 NAtFMM=   60 NAOKFM=F Big=F
 Integral buffers will be    131072 words long.
 Raffenetti 2 integral format.
 Two-electron integral symmetry is turned on.
 No density basis found on file   724.
 ------------------------------------------------------------------------------
 Polarizable Continuum Model (PCM)
 =================================
 Model                : PCM.
 Atomic radii         : SMD-Coulomb.
 Polarization charges : Total charges.
 Charge compensation  : None.
 Solution method      : On-the-fly selection.
 Cavity type          : VdW (van der Waals Surface) (Alpha=1.000).
 Cavity algorithm     : GePol (No added spheres)
                        Default sphere list used, NSphG=   15.
                        Lebedev-Laikov grids with approx.  5.0 points / Ang**2.
                        Smoothing algorithm: York/Karplus (Gamma=1.0000).
                        Polarization charges: spherical gaussians, with
                                              point-specific exponents (IZeta= 3).
                        Self-potential: point-specific (ISelfS= 7).
                        Self-field    : sphere-specific E.n sum rule (ISelfD= 2).
 1st derivatives      : Analytical E(r).r(x)/FMM algorithm (CHGder, D1EAlg=3).
                        Cavity 1st derivative terms included.
 Solvent              : DiChloroEthane, Eps=  10.125000 Eps(inf)=   2.087447
 ------------------------------------------------------------------------------
 Spheres list:
 ISph  on   Nord     Re0    Alpha      Xe            Ye            Ze
    1   C      1    1.8500  1.000     -1.237413      0.037085      0.428584
    2   C      2    1.8500  1.000     -1.898184     -1.200127      0.124164
    3   C      3    1.8500  1.000     -1.938076      1.192903     -0.058940
    4   N      4    1.8900  1.000     -2.487387     -2.183972     -0.075104
    5   N      5    1.8900  1.000     -2.498834      2.150617     -0.412304
    6   C      6    1.8500  1.000      0.918525      1.176118      0.251565
    7   C      7    1.8500  1.000      2.063105     -1.215105     -0.199917
    8   C      8    1.8500  1.000      2.297457      1.138588      0.065376
    9   H      9    1.2000  1.000      0.354842      2.081978      0.466466
   10   C     10    1.8500  1.000      2.894918     -0.090793     -0.160386
   11   H     11    1.2000  1.000      2.455053     -2.220303     -0.359827
   12   H     12    1.2000  1.000      2.876278      2.060187      0.111421
   13   H     13    1.2000  1.000      3.970238     -0.196358     -0.302820
   14   N     14    1.8900  1.000      0.201382      0.037982      0.164699
   15   N     15    1.8900  1.000      0.747924     -1.141414     -0.051280
 ------------------------------------------------------------------------------
 GePol: Number of generator spheres                  =      15
 GePol: Total number of spheres                      =      15
 GePol: Number of exposed spheres                    =      15 (100.00%)
 GePol: Number of points                             =    1550
 GePol: Average weight of points                     =       0.12
 GePol: Minimum weight of points                     =   0.90D-09
 GePol: Maximum weight of points                     =    0.17992
 GePol: Number of points with low weight             =      80
 GePol: Fraction of low-weight points (<1% of avg)   =       5.16%
 GePol: Cavity surface area                          =    180.536 Ang**2
 GePol: Cavity volume                                =    159.482 Ang**3
 ------------------------------------------------------------------------------
 Atomic radii for non-electrostatic terms: SMD-CDS.
 ------------------------------------------------------------------------------
 PCM non-electrostatic energy =         0.0021365577 Hartrees.
 Nuclear repulsion after PCM non-electrostatic terms =      511.7367916737 Hartrees.
 Leave Link  301 at Tue Jan 28 15:30:05 2025, MaxMem= 82678120448 cpu:               3.2 elap:               0.2
 (Enter /sysapps/ubuntu-applications/gaussian-new/avx/g16/l302.exe)
 NPDir=0 NMtPBC=     1 NCelOv=     1 NCel=       1 NClECP=     1 NCelD=      1
         NCelK=      1 NCelE2=     1 NClLst=     1 CellRange=     0.0.
 One-electron integrals computed using PRISM.
 One-electron integral symmetry used in STVInt
 NBasis=   174 RedAO= T EigKep=  5.98D-04  NBF=   174
 NBsUse=   174 1.00D-06 EigRej= -1.00D+00 NBFU=   174
 Precomputing XC quadrature grid using
 IXCGrd= 4 IRadAn=           5 IRanWt=          -1 IRanGd=           0 AccXCQ= 0.00D+00.
 Generated NRdTot=       0 NPtTot=           0 NUsed=           0 NTot=          32
 NSgBfM=   184   184   184   184   184 MxSgAt=    15 MxSgA2=    15.
 Leave Link  302 at Tue Jan 28 15:30:05 2025, MaxMem= 82678120448 cpu:               5.1 elap:               0.3
 (Enter /sysapps/ubuntu-applications/gaussian-new/avx/g16/l303.exe)
 DipDrv:  MaxL=1.
 Leave Link  303 at Tue Jan 28 15:30:06 2025, MaxMem= 82678120448 cpu:               5.0 elap:               0.3
 (Enter /sysapps/ubuntu-applications/gaussian-new/avx/g16/l401.exe)
 Initial guess from the checkpoint file:  "ylide.chk"
 B after Tr=     0.000000   -0.000000   -0.000000
         Rot=    0.999977   -0.000132   -0.000914   -0.006644 Ang=  -0.77 deg.
 Guess basis will be translated and rotated to current coordinates.
 JPrj=2 DoOrth=T DoCkMO=T.
 Generating alternative initial guess.
 ExpMin= 1.22D-01 ExpMax= 1.71D+03 ExpMxC= 2.58D+02 IAcc=2 IRadAn=         4 AccDes= 0.00D+00
 Harris functional with IExCor= 1009 and IRadAn=       4 diagonalized for initial guess.
 HarFok:  IExCor= 1009 AccDes= 0.00D+00 IRadAn=         4 IDoV= 1 UseB2=F ITyADJ=14
 ICtDFT=  3500011 ScaDFX=  1.000000  1.000000  1.000000  1.000000
 FoFCou: FMM=F IPFlag=           0 FMFlag=      100000 FMFlg1=           0
         NFxFlg=           0 DoJE=T BraDBF=F KetDBF=T FulRan=T
         wScrn=  0.000000 ICntrl=       500 IOpCl=  0 I1Cent=   200000004 NGrid=           0
         NMat0=    1 NMatS0=      1 NMatT0=    0 NMatD0=    1 NMtDS0=    0 NMtDT0=    0
 Petite list used in FoFCou.
 Harris En= -487.192094977803    
 Leave Link  401 at Tue Jan 28 15:30:06 2025, MaxMem= 82678120448 cpu:              10.1 elap:               0.5
 (Enter /sysapps/ubuntu-applications/gaussian-new/avx/g16/l502.exe)
 Integral symmetry usage will be decided dynamically.
 Closed shell SCF:
 Using DIIS extrapolation, IDIIS=  1040.
 NGot= 82678120448 LenX= 82678045589 LenY= 82678010923
 Requested convergence on RMS density matrix=1.00D-08 within 500 cycles.
 Requested convergence on MAX density matrix=1.00D-06.
 Requested convergence on             energy=1.00D-06.
 No special actions if energy rises.
 Fock matrices will be formed incrementally for  20 cycles.

 Cycle   1  Pass 1  IDiag  1:
 FoFJK:  IHMeth= 1 ICntrl=       0 DoSepK=F KAlg= 0 I1Cent=           0 FoldK=F
 IRaf= 940000000 NMat=       1 IRICut=       1 DoRegI=T DoRafI=F ISym2E= 0 IDoP0=0 IntGTp=1.
 FoFCou: FMM=F IPFlag=           0 FMFlag=      100000 FMFlg1=           0
         NFxFlg=           0 DoJE=F BraDBF=F KetDBF=F FulRan=T
         wScrn=  0.000000 ICntrl=         0 IOpCl=  0 I1Cent=           0 NGrid=           0
         NMat0=    1 NMatS0=      1 NMatT0=    0 NMatD0=    1 NMtDS0=    0 NMtDT0=    0
 Symmetry not used in FoFCou.
 Inv3:  Mode=1 IEnd=     7207500.
 Iteration    1 A*A^-1 deviation from unit magnitude is 4.22D-15 for   1529.
 Iteration    1 A*A^-1 deviation from orthogonality  is 1.53D-15 for   1135    877.
 Iteration    1 A^-1*A deviation from unit magnitude is 3.66D-15 for   1524.
 Iteration    1 A^-1*A deviation from orthogonality  is 6.71D-15 for   1039    392.
 E= -487.048327469447    
 DIIS: error= 1.24D-02 at cycle   1 NSaved=   1.
 NSaved= 1 IEnMin= 1 EnMin= -487.048327469447     IErMin= 1 ErrMin= 1.24D-02
 ErrMax= 1.24D-02  0.00D+00 EMaxC= 1.00D-01 BMatC= 2.27D-02 BMatP= 2.27D-02
 IDIUse=3 WtCom= 8.76D-01 WtEn= 1.24D-01
 Coeff-Com:  0.100D+01
 Coeff-En:   0.100D+01
 Coeff:      0.100D+01
 Recover alternate guess density for next cycle.
 RMSDP=3.47D-03 MaxDP=9.00D-02              OVMax= 0.00D+00

 Cycle   2  Pass 1  IDiag  1:
 RMSU=  3.47D-03    CP:  1.00D+00
 E= -486.876908887916     Delta-E=        0.171418581532 Rises=F Damp=F
 Switch densities from cycles 1 and 2 for lowest energy.
 DIIS: error= 2.28D-02 at cycle   2 NSaved=   2.
 NSaved= 2 IEnMin= 1 EnMin= -487.048327469447     IErMin= 1 ErrMin= 1.24D-02
 ErrMax= 2.28D-02  0.00D+00 EMaxC= 1.00D+00 BMatC= 1.91D-01 BMatP= 2.27D-02
 IDIUse=1 WtCom= 1.00D+00 WtEn= 0.00D+00
 Coeff-Com:  0.898D+00 0.102D+00
 Coeff:      0.898D+00 0.102D+00
 Gap=     0.182 Goal=   None    Shift=    0.000
 RMSDP=1.61D-03 MaxDP=5.32D-02 DE= 1.71D-01 OVMax= 1.22D-01

 Cycle   3  Pass 1  IDiag  1:
 RMSU=  1.48D-03    CP:  9.96D-01  1.81D-01
 E= -487.061676499614     Delta-E=       -0.184767611699 Rises=F Damp=F
 DIIS: error= 6.81D-03 at cycle   3 NSaved=   3.
 NSaved= 3 IEnMin= 3 EnMin= -487.061676499614     IErMin= 3 ErrMin= 6.81D-03
 ErrMax= 6.81D-03  0.00D+00 EMaxC= 1.00D+00 BMatC= 7.72D-03 BMatP= 2.27D-02
 IDIUse=1 WtCom= 1.00D+00 WtEn= 0.00D+00
 Coeff-Com:  0.692D-01 0.138D+00 0.793D+00
 Coeff:      0.692D-01 0.138D+00 0.793D+00
 Gap=     0.177 Goal=   None    Shift=    0.000
 RMSDP=6.73D-04 MaxDP=1.93D-02 DE=-1.85D-01 OVMax= 4.03D-02

 Cycle   4  Pass 1  IDiag  1:
 RMSU=  5.75D-04    CP:  9.94D-01  2.78D-01  9.59D-01
 E= -487.066430045211     Delta-E=       -0.004753545596 Rises=F Damp=F
 DIIS: error= 4.65D-03 at cycle   4 NSaved=   4.
 NSaved= 4 IEnMin= 4 EnMin= -487.066430045211     IErMin= 4 ErrMin= 4.65D-03
 ErrMax= 4.65D-03  0.00D+00 EMaxC= 1.00D+00 BMatC= 2.80D-03 BMatP= 7.72D-03
 IDIUse=1 WtCom= 1.00D+00 WtEn= 0.00D+00
 Coeff-Com: -0.265D-01 0.600D-01 0.476D+00 0.490D+00
 Coeff:     -0.265D-01 0.600D-01 0.476D+00 0.490D+00
 Gap=     0.182 Goal=   None    Shift=    0.000
 RMSDP=2.88D-04 MaxDP=1.04D-02 DE=-4.75D-03 OVMax= 1.38D-02

 Cycle   5  Pass 1  IDiag  1:
 RMSU=  1.61D-04    CP:  9.95D-01  2.75D-01  9.72D-01  5.89D-01
 E= -487.068947557318     Delta-E=       -0.002517512107 Rises=F Damp=F
 DIIS: error= 7.70D-04 at cycle   5 NSaved=   5.
 NSaved= 5 IEnMin= 5 EnMin= -487.068947557318     IErMin= 5 ErrMin= 7.70D-04
 ErrMax= 7.70D-04  0.00D+00 EMaxC= 1.00D+00 BMatC= 1.65D-04 BMatP= 2.80D-03
 IDIUse=1 WtCom= 1.00D+00 WtEn= 0.00D+00
 Coeff-Com: -0.155D-01 0.159D-01 0.166D+00 0.256D+00 0.577D+00
 Coeff:     -0.155D-01 0.159D-01 0.166D+00 0.256D+00 0.577D+00
 Gap=     0.182 Goal=   None    Shift=    0.000
 RMSDP=7.15D-05 MaxDP=2.73D-03 DE=-2.52D-03 OVMax= 3.16D-03

 Cycle   6  Pass 1  IDiag  1:
 RMSU=  6.35D-05    CP:  9.95D-01  2.73D-01  9.74D-01  5.86D-01  8.09D-01
 E= -487.069086672701     Delta-E=       -0.000139115383 Rises=F Damp=F
 DIIS: error= 1.60D-04 at cycle   6 NSaved=   6.
 NSaved= 6 IEnMin= 6 EnMin= -487.069086672701     IErMin= 6 ErrMin= 1.60D-04
 ErrMax= 1.60D-04  0.00D+00 EMaxC= 1.00D+00 BMatC= 1.01D-05 BMatP= 1.65D-04
 IDIUse=1 WtCom= 1.00D+00 WtEn= 0.00D+00
 Coeff-Com: -0.162D-02-0.240D-02-0.201D-01 0.201D-01 0.196D+00 0.808D+00
 Coeff:     -0.162D-02-0.240D-02-0.201D-01 0.201D-01 0.196D+00 0.808D+00
 Gap=     0.181 Goal=   None    Shift=    0.000
 RMSDP=2.74D-05 MaxDP=8.39D-04 DE=-1.39D-04 OVMax= 1.73D-03

 Cycle   7  Pass 1  IDiag  1:
 RMSU=  1.54D-05    CP:  9.95D-01  2.75D-01  9.75D-01  6.13D-01  8.85D-01
                    CP:  9.02D-01
 E= -487.069098122533     Delta-E=       -0.000011449832 Rises=F Damp=F
 DIIS: error= 5.20D-05 at cycle   7 NSaved=   7.
 NSaved= 7 IEnMin= 7 EnMin= -487.069098122533     IErMin= 7 ErrMin= 5.20D-05
 ErrMax= 5.20D-05  0.00D+00 EMaxC= 1.00D+00 BMatC= 6.13D-07 BMatP= 1.01D-05
 IDIUse=1 WtCom= 1.00D+00 WtEn= 0.00D+00
 Coeff-Com:  0.115D-03-0.172D-02-0.177D-01-0.989D-02 0.298D-01 0.297D+00
 Coeff-Com:  0.702D+00
 Coeff:      0.115D-03-0.172D-02-0.177D-01-0.989D-02 0.298D-01 0.297D+00
 Coeff:      0.702D+00
 Gap=     0.181 Goal=   None    Shift=    0.000
 RMSDP=6.25D-06 MaxDP=2.15D-04 DE=-1.14D-05 OVMax= 2.96D-04

 Cycle   8  Pass 1  IDiag  1:
 RMSU=  5.27D-06    CP:  9.95D-01  2.75D-01  9.76D-01  6.13D-01  8.97D-01
                    CP:  9.27D-01  8.74D-01
 E= -487.069098778499     Delta-E=       -0.000000655965 Rises=F Damp=F
 DIIS: error= 1.37D-05 at cycle   8 NSaved=   8.
 NSaved= 8 IEnMin= 8 EnMin= -487.069098778499     IErMin= 8 ErrMin= 1.37D-05
 ErrMax= 1.37D-05  0.00D+00 EMaxC= 1.00D+00 BMatC= 7.22D-08 BMatP= 6.13D-07
 IDIUse=1 WtCom= 1.00D+00 WtEn= 0.00D+00
 Coeff-Com:  0.235D-03-0.446D-03-0.467D-02-0.601D-02-0.896D-02 0.408D-01
 Coeff-Com:  0.279D+00 0.700D+00
 Coeff:      0.235D-03-0.446D-03-0.467D-02-0.601D-02-0.896D-02 0.408D-01
 Coeff:      0.279D+00 0.700D+00
 Gap=     0.181 Goal=   None    Shift=    0.000
 RMSDP=2.23D-06 MaxDP=5.86D-05 DE=-6.56D-07 OVMax= 1.14D-04

 Cycle   9  Pass 1  IDiag  1:
 RMSU=  1.58D-06    CP:  9.95D-01  2.75D-01  9.76D-01  6.13D-01  8.99D-01
                    CP:  9.43D-01  9.34D-01  8.85D-01
 E= -487.069098863991     Delta-E=       -0.000000085492 Rises=F Damp=F
 DIIS: error= 6.59D-06 at cycle   9 NSaved=   9.
 NSaved= 9 IEnMin= 9 EnMin= -487.069098863991     IErMin= 9 ErrMin= 6.59D-06
[...]
 ! A13   A(7,10,8)             116.5344         -DE/DX =    0.0                 !
 ! A14   A(7,10,13)            121.0024         -DE/DX =    0.0                 !
 ! A15   A(8,10,13)            122.4632         -DE/DX =    0.0                 !
 ! A16   A(1,14,6)             122.281          -DE/DX =    0.0                 !
 ! A17   A(1,14,15)            115.3322         -DE/DX =    0.0                 !
 ! A18   A(6,14,15)            122.3868         -DE/DX =    0.0                 !
 ! A19   A(7,15,14)            118.5082         -DE/DX =    0.0                 !
 ! A20   L(1,2,4,11,-1)        182.5671         -DE/DX =    0.0                 !
 ! A21   L(1,3,5,9,-1)         179.5609         -DE/DX =    0.0                 !
 ! A22   L(1,2,4,11,-2)        179.9663         -DE/DX =    0.0001              !
 ! A23   L(1,3,5,9,-2)         180.0211         -DE/DX =    0.0                 !
 ! D1    D(2,1,14,6)          -179.9889         -DE/DX =    0.0                 !
 ! D2    D(2,1,14,15)            0.0214         -DE/DX =    0.0                 !
 ! D3    D(3,1,14,6)             0.0022         -DE/DX =    0.0                 !
 ! D4    D(3,1,14,15)          180.0125         -DE/DX =    0.0                 !
 ! D5    D(9,6,8,10)          -179.9855         -DE/DX =    0.0                 !
 ! D6    D(9,6,8,12)             0.024          -DE/DX =    0.0                 !
 ! D7    D(14,6,8,10)           -0.0027         -DE/DX =    0.0                 !
 ! D8    D(14,6,8,12)         -179.9933         -DE/DX =    0.0                 !
 ! D9    D(8,6,14,1)           180.0267         -DE/DX =    0.0                 !
 ! D10   D(8,6,14,15)            0.0157         -DE/DX =    0.0                 !
 ! D11   D(9,6,14,1)             0.0106         -DE/DX =    0.0                 !
 ! D12   D(9,6,14,15)          179.9996         -DE/DX =    0.0                 !
 ! D13   D(11,7,10,8)          180.0028         -DE/DX =    0.0                 !
 ! D14   D(11,7,10,13)           0.0034         -DE/DX =    0.0                 !
 ! D15   D(15,7,10,8)            0.0216         -DE/DX =    0.0                 !
 ! D16   D(15,7,10,13)        -179.9779         -DE/DX =    0.0                 !
 ! D17   D(10,7,15,14)          -0.0097         -DE/DX =    0.0                 !
 ! D18   D(11,7,15,14)         180.0078         -DE/DX =    0.0                 !
 ! D19   D(6,8,10,7)            -0.0145         -DE/DX =    0.0                 !
 ! D20   D(6,8,10,13)         -180.0151         -DE/DX =    0.0                 !
 ! D21   D(12,8,10,7)          179.9757         -DE/DX =    0.0                 !
 ! D22   D(12,8,10,13)          -0.0249         -DE/DX =    0.0                 !
 ! D23   D(1,14,15,7)         -180.0198         -DE/DX =    0.0                 !
 ! D24   D(6,14,15,7)           -0.0095         -DE/DX =    0.0                 !
 --------------------------------------------------------------------------------
 Lowest energy point so far.  Saving SCF results.
 Largest change from initial coordinates is atom    1       0.086 Angstoms.
 GradGradGradGradGradGradGradGradGradGradGradGradGradGradGradGradGradGrad

 Leave Link  103 at Tue Jan 28 15:32:11 2025, MaxMem= 82678120448 cpu:               5.0 elap:               0.3
 (Enter /sysapps/ubuntu-applications/gaussian-new/avx/g16/l202.exe)
                          Input orientation:                          
 ---------------------------------------------------------------------
 Center     Atomic      Atomic             Coordinates (Angstroms)
 Number     Number       Type             X           Y           Z
 ---------------------------------------------------------------------
      1          6           0        5.093924    1.769770   -0.479913
      2          6           0        5.408738    1.758869   -1.854862
      3          6           0        4.319651    2.797280    0.090389
      4          7           0        5.641649    1.794031   -2.997088
      5          7           0        3.677730    3.645424    0.571371
      6          6           0        5.309747    0.665384    1.656803
      7          6           0        6.769711   -1.206037    0.399951
      8          6           0        5.805920   -0.389104    2.405956
      9          1           0        4.708266    1.471720    2.075845
     10          6           0        6.563469   -1.366842    1.773486
     11          1           0        7.352590   -1.925181   -0.180217
     12          1           0        5.587510   -0.422724    3.473895
     13          1           0        6.981125   -2.219660    2.307616
     14          7           0        5.568707    0.727911    0.326212
     15          7           0        6.289363   -0.193229   -0.302043
 ---------------------------------------------------------------------
                    Distance matrix (angstroms):
                    1          2          3          4          5
     1  C    0.000000
     2  C    1.410571   0.000000
     3  C    1.407309   2.459351   0.000000
     4  N    2.576191   1.166261   3.505239   0.000000
     5  N    2.574662   3.527334   1.167371   4.474208   0.000000
     6  C    2.414913   3.679307   2.824699   4.800282   3.566831
     7  C    3.526733   3.965740   4.703739   4.670418   5.755555
     8  C    3.673678   4.788121   4.209974   5.829747   4.916535
     9  H    2.601820   4.002945   2.418712   5.168147   2.837330
    10  C    4.132276   4.926294   5.020701   5.796486   5.907232
    11  H    4.340973   4.489456   5.619037   4.969368   6.715737
    12  H    4.547884   5.760812   4.839835   6.840362   5.349929
    13  H    5.219904   5.968862   6.096657   6.785558   6.951704
    14  N    1.400259   2.417756   2.428588   3.490882   3.485367
    15  N    2.305228   2.645266   3.602348   3.410573   4.724271
                    6          7          8          9         10
     6  C    0.000000
     7  C    2.685775   0.000000
     8  C    1.385410   2.370724   0.000000
     9  H    1.089749   3.772077   2.185517   0.000000
    10  C    2.390685   1.398211   1.389198   3.404502   0.000000
    11  H    3.776093   1.092479   3.382308   4.860165   2.179772
    12  H    2.136107   3.385308   1.090562   2.513271   2.176062
    13  H    3.397137   2.170556   2.177548   4.341186   1.089509
    14  N    1.356998   2.277719   2.372621   2.086822   2.733522
    15  N    2.352433   1.322615   2.757779   3.305492   2.400067
                   11         12         13         14         15
    11  H    0.000000
    12  H    4.327287   0.000000
    13  H    2.532591   2.555650   0.000000
    14  N    3.236913   3.351451   3.822180   0.000000
    15  N    2.035915   3.847463   3.375689   1.327610   0.000000
 Stoichiometry    C7H4N4
 Framework group  C1[X(C7H4N4)]
 Deg. of freedom    39
 Full point group                 C1      NOp   1
 RotChk:  IX=1 Diff= 5.72D-16
 Largest Abelian subgroup         C1      NOp   1
 Largest concise Abelian subgroup C1      NOp   1
                         Standard orientation:                         
 ---------------------------------------------------------------------
 Center     Atomic      Atomic             Coordinates (Angstroms)
 Number     Number       Type             X           Y           Z
 ---------------------------------------------------------------------
      1          6           0       -1.220797   -0.002417   -0.000219
      2          6           0       -1.866189   -1.256682   -0.000235
      3          6           0       -1.949993    1.201241   -0.000363
      4          7           0       -2.445711   -2.268768    0.000407
      5          7           0       -2.547197    2.204288   -0.000053
      6          6           0        0.874703    1.197867    0.000399
      7          6           0        2.099033   -1.192616   -0.000097
      8          6           0        2.259884    1.172645    0.000188
      9          1           0        0.288780    2.116696    0.000499
     10          6           0        2.911151   -0.054434   -0.000232
     11          1           0        2.523173   -2.199400   -0.000355
     12          1           0        2.802050    2.118892    0.000516
     13          1           0        3.997292   -0.140034   -0.000658
     14          7           0        0.179020    0.032763    0.000138
     15          7           0        0.777026   -1.152538   -0.000013
 ---------------------------------------------------------------------
 Rotational constants (GHZ):           1.9457633           0.9294441           0.6289905
 Leave Link  202 at Tue Jan 28 15:32:11 2025, MaxMem= 82678120448 cpu:               2.9 elap:               0.2
 (Enter /sysapps/ubuntu-applications/gaussian-new/avx/g16/l601.exe)
 Copying SCF densities to generalized density rwf, IOpCl= 0 IROHF=0.

 **********************************************************************

            Population analysis using the SCF density.

 **********************************************************************

 Orbital symmetries:
       Occupied  (A) (A) (A) (A) (A) (A) (A) (A) (A) (A) (A) (A)
                 (A) (A) (A) (A) (A) (A) (A) (A) (A) (A) (A) (A)
                 (A) (A) (A) (A) (A) (A) (A) (A) (A) (A) (A) (A)
                 (A)
       Virtual   (A) (A) (A) (A) (A) (A) (A) (A) (A) (A) (A) (A)
                 (A) (A) (A) (A) (A) (A) (A) (A) (A) (A) (A) (A)
                 (A) (A) (A) (A) (A) (A) (A) (A) (A) (A) (A) (A)
                 (A) (A) (A) (A) (A) (A) (A) (A) (A) (A) (A) (A)
                 (A) (A) (A) (A) (A) (A) (A) (A) (A) (A) (A) (A)
                 (A) (A) (A) (A) (A) (A) (A) (A) (A) (A) (A) (A)
                 (A) (A) (A) (A) (A) (A) (A) (A) (A) (A) (A) (A)
                 (A) (A) (A) (A) (A) (A) (A) (A) (A) (A) (A) (A)
                 (A) (A) (A) (A) (A) (A) (A) (A) (A) (A) (A) (A)
                 (A) (A) (A) (A) (A) (A) (A) (A) (A) (A) (A) (A)
                 (A) (A) (A) (A) (A) (A) (A) (A) (A) (A) (A) (A)
                 (A) (A) (A) (A) (A)
 The electronic state is 1-A.
 Alpha  occ. eigenvalues --  -14.27090 -14.17171 -14.10481 -14.09772 -10.13531
 Alpha  occ. eigenvalues --  -10.12579 -10.12467 -10.10510 -10.10502 -10.10091
 Alpha  occ. eigenvalues --  -10.09402  -1.14343  -0.95789  -0.93115  -0.92838
 Alpha  occ. eigenvalues --   -0.89513  -0.81787  -0.75318  -0.72553  -0.65043
 Alpha  occ. eigenvalues --   -0.62330  -0.58181  -0.56196  -0.55958  -0.53158
 Alpha  occ. eigenvalues --   -0.47875  -0.45051  -0.44289  -0.42033  -0.41416
 Alpha  occ. eigenvalues --   -0.39664  -0.39054  -0.38480  -0.38401  -0.36784
 Alpha  occ. eigenvalues --   -0.35600  -0.24422
 Alpha virt. eigenvalues --   -0.06789  -0.03153   0.01637   0.07328   0.09021
 Alpha virt. eigenvalues --    0.11171   0.11955   0.14043   0.15852   0.18025
 Alpha virt. eigenvalues --    0.19854   0.20085   0.21820   0.23267   0.24601
 Alpha virt. eigenvalues --    0.27955   0.30323   0.31110   0.36431   0.37847
 Alpha virt. eigenvalues --    0.40032   0.42578   0.44702   0.44871   0.47188
 Alpha virt. eigenvalues --    0.48188   0.49493   0.51768   0.52207   0.52226
 Alpha virt. eigenvalues --    0.54079   0.55527   0.55785   0.58001   0.62761
 Alpha virt. eigenvalues --    0.63310   0.64282   0.65147   0.67519   0.68794
 Alpha virt. eigenvalues --    0.69194   0.69621   0.70222   0.72168   0.72740
 Alpha virt. eigenvalues --    0.74366   0.75035   0.79011   0.81571   0.82178
 Alpha virt. eigenvalues --    0.86519   0.88145   0.89481   0.91376   0.92563
 Alpha virt. eigenvalues --    0.96418   0.96769   0.99153   1.02212   1.02999
 Alpha virt. eigenvalues --    1.06748   1.08540   1.15515   1.16958   1.19465
 Alpha virt. eigenvalues --    1.20427   1.23069   1.23718   1.25334   1.30355
 Alpha virt. eigenvalues --    1.34268   1.35698   1.37849   1.42499   1.43604
 Alpha virt. eigenvalues --    1.47011   1.51077   1.60106   1.61098   1.61423
 Alpha virt. eigenvalues --    1.65374   1.67867   1.68338   1.69952   1.72617
 Alpha virt. eigenvalues --    1.73459   1.75959   1.76771   1.78730   1.79387
 Alpha virt. eigenvalues --    1.83615   1.84739   1.90737   1.93636   1.93764
 Alpha virt. eigenvalues --    1.95647   2.02552   2.03889   2.07417   2.07559
 Alpha virt. eigenvalues --    2.10903   2.13190   2.16778   2.18963   2.21079
 Alpha virt. eigenvalues --    2.24438   2.24609   2.25016   2.25604   2.26610
 Alpha virt. eigenvalues --    2.28268   2.32225   2.37817   2.41275   2.45103
 Alpha virt. eigenvalues --    2.47742   2.61186   2.62502   2.64461   2.65344
 Alpha virt. eigenvalues --    2.67311   2.79596   2.79649   2.83717   2.85879
 Alpha virt. eigenvalues --    2.89004   2.90569   2.97134   2.99242   3.00317
 Alpha virt. eigenvalues --    3.01929   3.14249   3.18705   3.33535   3.41484
 Alpha virt. eigenvalues --    3.49757   3.59694
          Condensed to atoms (all electrons):
               1          2          3          4          5          6
     1  C    5.412629   0.348424   0.386731  -0.060522  -0.051449  -0.088077
     2  C    0.348424   4.942653  -0.033390   0.893958  -0.001764   0.007846
     3  C    0.386731  -0.033390   4.911375  -0.003091   0.901527  -0.005347
     4  N   -0.060522   0.893958  -0.003091   6.143824  -0.000043  -0.000077
     5  N   -0.051449  -0.001764   0.901527  -0.000043   6.118858  -0.002182
     6  C   -0.088077   0.007846  -0.005347  -0.000077  -0.002182   4.917478
     7  C    0.006805   0.001131  -0.000696  -0.000059  -0.000001  -0.088318
     8  C    0.005780  -0.001263   0.002636  -0.000005   0.000105   0.350603
     9  H   -0.011974   0.002543   0.017886   0.000023   0.005562   0.417688
    10  C    0.000783  -0.000055   0.000382  -0.000011   0.000001   0.043646
    11  H   -0.000284   0.000085  -0.000001   0.000043   0.000000  -0.001347
    12  H    0.000059   0.000005  -0.000127  -0.000000  -0.000006  -0.047708
    13  H    0.000049   0.000000  -0.000003   0.000000  -0.000000   0.012129
    14  N    0.399378  -0.030341  -0.046437   0.000140  -0.001393   0.364211
    15  N   -0.056615  -0.019027   0.011573  -0.010154   0.000031  -0.014037
               7          8          9         10         11         12
     1  C    0.006805   0.005780  -0.011974   0.000783  -0.000284   0.000059
     2  C    0.001131  -0.001263   0.002543  -0.000055   0.000085   0.000005
     3  C   -0.000696   0.002636   0.017886   0.000382  -0.000001  -0.000127
     4  N   -0.000059  -0.000005   0.000023  -0.000011   0.000043  -0.000000
     5  N   -0.000001   0.000105   0.005562   0.000001   0.000000  -0.000006
     6  C   -0.088318   0.350603   0.417688   0.043646  -0.001347  -0.047708
     7  C    4.784680   0.065632  -0.001747   0.318986   0.431528   0.010796
     8  C    0.065632   4.924289  -0.045628   0.297804   0.010259   0.444822
     9  H   -0.001747  -0.045628   0.568376   0.010980   0.000020  -0.010216
    10  C    0.318986   0.297804   0.010980   5.015759  -0.061509  -0.054620
    11  H    0.431528   0.010259   0.000020  -0.061509   0.592868  -0.000160
    12  H    0.010796   0.444822  -0.010216  -0.054620  -0.000160   0.591601
    13  H   -0.051121  -0.059752  -0.000092   0.444377  -0.008093  -0.009961
    14  N   -0.019216   0.015106  -0.035942  -0.065677   0.007762   0.004428
    15  N    0.494457  -0.049757   0.004250   0.002680  -0.043969  -0.000238
              13         14         15
     1  C    0.000049   0.399378  -0.056615
     2  C    0.000000  -0.030341  -0.019027
     3  C   -0.000003  -0.046437   0.011573
     4  N    0.000000   0.000140  -0.010154
     5  N   -0.000000  -0.001393   0.000031
     6  C    0.012129   0.364211  -0.014037
     7  C   -0.051121  -0.019216   0.494457
     8  C   -0.059752   0.015106  -0.049757
     9  H   -0.000092  -0.035942   0.004250
    10  C    0.444377  -0.065677   0.002680
    11  H   -0.008093   0.007762  -0.043969
    12  H   -0.009961   0.004428  -0.000238
    13  H    0.608942  -0.000024   0.004801
    14  N   -0.000024   6.196291   0.230066
    15  N    0.004801   0.230066   6.496394
 Mulliken charges:
               1
     1  C   -0.291717
     2  C   -0.110805
     3  C   -0.143018
     4  N    0.035972
     5  N    0.030755
     6  C    0.133491
     7  C    0.047143
     8  C    0.039368
     9  H    0.078271
    10  C    0.046475
    11  H    0.072797
    12  H    0.071325
    13  H    0.058748
    14  N   -0.018352
    15  N   -0.050454
 Sum of Mulliken charges =  -0.00000
 Mulliken charges with hydrogens summed into heavy atoms:
               1
     1  C   -0.291717
     2  C   -0.110805
     3  C   -0.143018
     4  N    0.035972
     5  N    0.030755
     6  C    0.211763
     7  C    0.119940
     8  C    0.110692
    10  C    0.105223
    14  N   -0.018352
    15  N   -0.050454
 Electronic spatial extent (au):  <R**2>=           1662.1930
 Charge=             -0.0000 electrons
 Dipole moment (field-independent basis, Debye):
    X=             12.7985    Y=              2.7415    Z=             -0.0009  Tot=             13.0888
 Quadrupole moment (field-independent basis, Debye-Ang):
   XX=            -63.0004   YY=            -73.6847   ZZ=            -62.8940
   XY=              0.0629   XZ=              0.0017   YZ=              0.0044
 Traceless Quadrupole moment (field-independent basis, Debye-Ang):
   XX=              3.5260   YY=             -7.1584   ZZ=              3.6324
   XY=              0.0629   XZ=              0.0017   YZ=              0.0044
 Octapole moment (field-independent basis, Debye-Ang**2):
  XXX=            121.9568  YYY=             13.0364  ZZZ=              0.0015  XYY=             73.9841
  XXY=             -2.2412  XXZ=             -0.0142  XZZ=              1.0111  YZZ=             -0.6961
  YYZ=             -0.0018  XYZ=             -0.0010
 Hexadecapole moment (field-independent basis, Debye-Ang**3):
 XXXX=          -1413.6796 YYYY=           -820.4469 ZZZZ=            -62.0236 XXXY=              2.8486
 XXXZ=             -0.0158 YYYX=             -3.4051 YYYZ=              0.0280 ZZZX=             -0.0029
 ZZZY=              0.0009 XXYY=           -467.1282 XXZZ=           -267.9753 YYZZ=           -135.7207
 XXYZ=              0.0287 YYXZ=              0.0153 ZZXY=             -1.2173
 N-N= 5.126819209224D+02 E-N=-2.154871800684D+03  KE= 4.815580966965D+02
 No NMR shielding tensors so no spin-rotation constants.
 Leave Link  601 at Tue Jan 28 15:32:11 2025, MaxMem= 82678120448 cpu:               8.5 elap:               0.5
 (Enter /sysapps/ubuntu-applications/gaussian-new/avx/g16/l9999.exe)
 1\1\GINC-ACIDSMN002\FOpt\RMN15\Gen\C7H4N4\SELHAJJ1\28-Jan-2025\0\\#P M
 N15/gen scf=(maxcyc=500) opt scrf=(smd,solvent=DiChloroEthane)\\Opt\\0
 ,1\C,5.0939242698,1.7697695571,-0.4799130538\C,5.4087384344,1.75886893
 75,-1.8548615217\C,4.319651253,2.7972795054,0.0903889993\N,5.641649187
 2,1.7940310774,-2.9970883085\N,3.6777303978,3.6454244394,0.5713705639\
 C,5.3097466255,0.6653835308,1.6568028824\C,6.7697112598,-1.2060369675,
 0.3999505628\C,5.8059199314,-0.3891039191,2.4059560638\H,4.7082658247,
 1.4717197566,2.0758452515\C,6.5634686514,-1.3668423868,1.7734857648\H,
 7.3525899885,-1.9251810551,-0.1802166492\H,5.5875099817,-0.42272379,3.
 4738948103\H,6.9811245644,-2.219660441,2.307615925\N,5.5687065948,0.72
 7910679,0.326211684\N,6.2893630357,-0.1932289239,-0.3020429745\\Versio
 n=ES64L-G16RevA.03\State=1-A\HF=-487.0799856\RMSD=6.311e-09\RMSF=2.371
 e-05\Dipole=1.2986925,-3.3691178,3.6715364\Quadrupole=1.1867452,1.3645
 006,-2.5512458,1.4152256,2.7873601,-2.566181\PG=C01 [X(C7H4N4)]\\@


 THE ... SCIENTISTS WERE WRONG ... THE MOST PERSISTENT PRINCIPLES 
 OF THE UNIVERSE WERE ACCIDENT AND ERROR.

                          -- FRANK HERBERT IN DUNE
 Job cpu time:       0 days  0 hours 54 minutes 12.8 seconds.
 Elapsed time:       0 days  0 hours  2 minutes 26.5 seconds.
 File lengths (MBytes):  RWF=    124 Int=      0 D2E=      0 Chk=     12 Scr=      8
 Normal termination of Gaussian 16 at Tue Jan 28 15:32:12 2025.
