 Entering Gaussian System, Link 0=/sysapps/ubuntu-applications/gaussian-new/avx/g16//g16
 Input=i3-major.in
 Output=i3-major.log
 Initial command:
 /sysapps/ubuntu-applications/gaussian-new/avx/g16/l1.exe "/data/temp-scratch/selhajj1/7629069/Gau-4014731.inp" -scrdir="/data/temp-scratch/selhajj1/7629069/"
 Entering Link 1 = /sysapps/ubuntu-applications/gaussian-new/avx/g16/l1.exe PID=   4014733.
  
 Copyright (c) 1988,1990,1992,1993,1995,1998,2003,2009,2016,
            Gaussian, Inc.  All Rights Reserved.
  
 This is part of the Gaussian(R) 16 program.  It is based on
 the Gaussian(R) 09 system (copyright 2009, Gaussian, Inc.),
 the Gaussian(R) 03 system (copyright 2003, Gaussian, Inc.),
 the Gaussian(R) 98 system (copyright 1998, Gaussian, Inc.),
 the Gaussian(R) 94 system (copyright 1995, Gaussian, Inc.),
 the Gaussian 92(TM) system (copyright 1992, Gaussian, Inc.),
 the Gaussian 90(TM) system (copyright 1990, Gaussian, Inc.),
 the Gaussian 88(TM) system (copyright 1988, Gaussian, Inc.),
 the Gaussian 86(TM) system (copyright 1986, Carnegie Mellon
 University), and the Gaussian 82(TM) system (copyright 1983,
 Carnegie Mellon University). Gaussian is a federally registered
 trademark of Gaussian, Inc.
  
 This software contains proprietary and confidential information,
 including trade secrets, belonging to Gaussian, Inc.
  
 This software is provided under written license and may be
 used, copied, transmitted, or stored only in accord with that
 written license.
  
 The following legend is applicable only to US Government
 contracts under FAR:
  
                    RESTRICTED RIGHTS LEGEND
  
 Use, reproduction and disclosure by the US Government is
 subject to restrictions as set forth in subparagraphs (a)
 and (c) of the Commercial Computer Software - Restricted
 Rights clause in FAR 52.227-19.
  
 Gaussian, Inc.
 340 Quinnipiac St., Bldg. 40, Wallingford CT 06492
  
  
 ---------------------------------------------------------------
 Warning -- This program may not be used in any manner that
 competes with the business of Gaussian, Inc. or will provide
 assistance to any competitor of Gaussian, Inc.  The licensee
 of this program is prohibited from giving any competitor of
 Gaussian, Inc. access to this program.  By using this program,
 the user acknowledges that Gaussian, Inc. is engaged in the
 business of creating and licensing software in the field of
 computational chemistry and represents and warrants to the
 licensee that it is not a competitor of Gaussian, Inc. and that
 it will not use this program in any manner prohibited above.
 ---------------------------------------------------------------
  

 Cite this work as:
 Gaussian 16, Revision A.03,
 M. J. Frisch, G. W. Trucks, H. B. Schlegel, G. E. Scuseria, 
 M. A. Robb, J. R. Cheeseman, G. Scalmani, V. Barone, 
 G. A. Petersson, H. Nakatsuji, X. Li, M. Caricato, A. V. Marenich, 
 J. Bloino, B. G. Janesko, R. Gomperts, B. Mennucci, H. P. Hratchian, 
 J. V. Ortiz, A. F. Izmaylov, J. L. Sonnenberg, D. Williams-Young, 
 F. Ding, F. Lipparini, F. Egidi, J. Goings, B. Peng, A. Petrone, 
 T. Henderson, D. Ranasinghe, V. G. Zakrzewski, J. Gao, N. Rega, 
 G. Zheng, W. Liang, M. Hada, M. Ehara, K. Toyota, R. Fukuda, 
 J. Hasegawa, M. Ishida, T. Nakajima, Y. Honda, O. Kitao, H. Nakai, 
 T. Vreven, K. Throssell, J. A. Montgomery, Jr., J. E. Peralta, 
 F. Ogliaro, M. J. Bearpark, J. J. Heyd, E. N. Brothers, K. N. Kudin, 
 V. N. Staroverov, T. A. Keith, R. Kobayashi, J. Normand, 
 K. Raghavachari, A. P. Rendell, J. C. Burant, S. S. Iyengar, 
 J. Tomasi, M. Cossi, J. M. Millam, M. Klene, C. Adamo, R. Cammi, 
 J. W. Ochterski, R. L. Martin, K. Morokuma, O. Farkas, 
 J. B. Foresman, and D. J. Fox, Gaussian, Inc., Wallingford CT, 2016.
 
 ******************************************
 Gaussian 16:  ES64L-G16RevA.03 25-Dec-2016
                 3-Mar-2025 
 ******************************************
 %chk=i3-major.chk
 %mem=616Gb
 %nprocshared=24
 Will use up to   24 processors via shared memory.
 ----------------------------------------------------------------------
 #P UMN15/genecp scf=(maxcyc=500) freq scrf=(smd,solvent=DiChloroEthane
 )
 ----------------------------------------------------------------------
 1/10=4,30=1,38=1/1,3;
 2/12=2,17=6,18=5,40=1/2;
 3/5=7,11=2,16=1,17=8,25=1,30=1,70=32201,71=2,72=10,74=-73,116=2,140=1/1,2,3;
 4//1;
 5/5=2,7=500,38=5,53=10,98=1/2;
 8/6=4,10=90,11=11/1;
 11/6=1,8=1,9=11,15=111,16=1/1,2,10;
 10/6=1/2;
 6/7=2,8=2,9=2,10=2,28=1/1;
 7/8=1,10=1,25=1/1,2,3,16;
 1/10=4,30=1/3;
 99//99;
 Leave Link    1 at Mon Mar  3 13:41:47 2025, MaxMem= 82678120448 cpu:              27.7 elap:               1.3
 (Enter /sysapps/ubuntu-applications/gaussian-new/avx/g16/l101.exe)
 ----
 freq
 ----
 Symbolic Z-matrix:
 Charge =  0 Multiplicity = 2
 C                    -4.72371   1.36508   0.75477 
 C                    -5.5679    2.1255   -0.06346 
 C                    -6.2343    3.23156   0.46349 
 C                    -6.0505    3.58332   1.80314 
 C                    -5.20034   2.82958   2.61629 
 C                    -4.53593   1.71778   2.09695 
 C                    -1.96127  -1.04953   0.30625 
 C                    -1.44665  -0.52885  -1.08546 
 C                    -0.81232  -1.04926   1.3809 
 H                    -5.69587   1.85235  -1.11456 
 H                    -6.8898    3.8257   -0.17639 
 H                    -6.56642   4.45414   2.21357 
 H                    -5.04881   3.11035   3.66049 
 H                    -3.86281   1.13275   2.72703 
 O                    -0.22827   0.00288   1.53297 
 O                    -0.72212   0.44569  -1.08277 
 O                     2.64319  -1.08606   1.41307 
 O                     2.22163  -0.86251  -1.89106 
 O                     0.66667   2.96417   0.26441 
 S                     1.57111   3.60533  -0.71897 
 S                     3.39416  -0.10967   2.24178 
 S                     1.58191  -2.16425  -1.59129 
 O                     2.44253   2.56584  -1.32837 
 O                     2.20422   4.84673  -0.33033 
 O                     2.91848   1.26134   1.92669 
 O                     3.59206  -0.44072   3.63567 
 O                     0.63785  -2.01705  -0.45271 
 O                     1.06195  -2.91205  -2.72336 
 C                     2.9601   -3.22498  -0.91595 
 C                     5.05888  -0.13339   1.46616 
 C                     0.45296   4.05879  -2.10311 
 F                     2.5449   -3.84917   0.1715 
 F                     4.02169  -2.49542  -0.63637 
 F                     3.28817  -4.12475  -1.82953 
 F                     4.93561   0.18242   0.17961 
 F                     5.5982   -1.33702   1.5655 
 F                     5.85297   0.74838   2.05068 
 F                    -0.12425   2.972    -2.59631 
 F                     1.14523   4.65119  -3.06409 
 F                    -0.48637   4.88733  -1.67301 
 C                    -4.0325    0.15999   0.17832 
 H                    -3.89777   0.28228  -0.91155 
 C                    -4.87849  -1.16069   0.35304 
 C                    -6.16471  -1.04918  -0.34818 
 C                    -5.08228  -1.41898   1.79372 
 C                    -2.01682  -3.52459  -0.46525 
 C                    -4.08237  -4.14362  -1.49779 
 C                    -2.70287  -4.38161  -1.27517 
 H                    -0.94263  -3.63285  -0.29991 
 H                    -4.68939  -4.7954   -2.12878 
 H                    -2.20641  -5.21849  -1.76657 
 N                    -7.17545  -0.87271  -0.88042 
 N                    -5.19848  -1.62183   2.92635 
 N                    -4.08521  -2.27051  -0.2179 
 N                    -4.72062  -3.09815  -0.98564 
 C                    -2.70867  -2.42457   0.25206 
 H                    -2.78665  -2.73738   1.32051 
 Yb                    1.5534    0.64302  -0.05124 
 O                    -2.82484  -0.07842   0.84783 
 C                    -0.58321  -2.21001   2.28578 
 H                     0.34795  -2.02767   2.83546 
 H                    -1.42281  -2.25896   3.00161 
 H                    -0.52371  -3.17063   1.7608 
 C                    -1.87095  -1.16418  -2.36885 
 H                    -1.19945  -2.01655  -2.57012 
 H                    -2.90928  -1.52223  -2.36596 
 H                    -1.72975  -0.43155  -3.17361 
 
 ITRead=  0  0  0  0  0  0  0  0  0  0  0  0  0  0  0  0  0  0  0  0
 ITRead=  0  0  0  0  0  0  0  0  0  0  0  0  0  0  0  0  0  0  0  0
 ITRead=  0  0  0  0  0  0  0  0  0  0  0  0  0  0  0  0  0  0  0  0
 ITRead=  0  0  0  0  0  0  0
 MicOpt= -1 -1 -1 -1 -1 -1 -1 -1 -1 -1 -1 -1 -1 -1 -1 -1 -1 -1 -1 -1
 MicOpt= -1 -1 -1 -1 -1 -1 -1 -1 -1 -1 -1 -1 -1 -1 -1 -1 -1 -1 -1 -1
 MicOpt= -1 -1 -1 -1 -1 -1 -1 -1 -1 -1 -1 -1 -1 -1 -1 -1 -1 -1 -1 -1
 MicOpt= -1 -1 -1 -1 -1 -1 -1
 NAtoms=     67 NQM=       67 NQMF=       0 NMMI=      0 NMMIF=      0
                NMic=       0 NMicF=      0.
                    Isotopes and Nuclear Properties:
 (Nuclear quadrupole moments (NQMom) in fm**2, nuclear magnetic moments (NMagM)
  in nuclear magnetons)

  Atom         1           2           3           4           5           6           7           8           9          10
 IAtWgt=          12          12          12          12          12          12          12          12          12           1
 AtmWgt=  12.0000000  12.0000000  12.0000000  12.0000000  12.0000000  12.0000000  12.0000000  12.0000000  12.0000000   1.0078250
 NucSpn=           0           0           0           0           0           0           0           0           0           1
 AtZEff=  -0.0000000  -0.0000000  -0.0000000  -0.0000000  -0.0000000  -0.0000000  -0.0000000  -0.0000000  -0.0000000  -0.0000000
 NQMom=    0.0000000   0.0000000   0.0000000   0.0000000   0.0000000   0.0000000   0.0000000   0.0000000   0.0000000   0.0000000
 NMagM=    0.0000000   0.0000000   0.0000000   0.0000000   0.0000000   0.0000000   0.0000000   0.0000000   0.0000000   2.7928460
 AtZNuc=   6.0000000   6.0000000   6.0000000   6.0000000   6.0000000   6.0000000   6.0000000   6.0000000   6.0000000   1.0000000

  Atom        11          12          13          14          15          16          17          18          19          20
 IAtWgt=           1           1           1           1          16          16          16          16          16          32
 AtmWgt=   1.0078250   1.0078250   1.0078250   1.0078250  15.9949146  15.9949146  15.9949146  15.9949146  15.9949146  31.9720718
 NucSpn=           1           1           1           1           0           0           0           0           0           0
 AtZEff=  -0.0000000  -0.0000000  -0.0000000  -0.0000000  -0.0000000  -0.0000000  -0.0000000  -0.0000000  -0.0000000  -0.0000000
 NQMom=    0.0000000   0.0000000   0.0000000   0.0000000   0.0000000   0.0000000   0.0000000   0.0000000   0.0000000   0.0000000
 NMagM=    2.7928460   2.7928460   2.7928460   2.7928460   0.0000000   0.0000000   0.0000000   0.0000000   0.0000000   0.0000000
 AtZNuc=   1.0000000   1.0000000   1.0000000   1.0000000   8.0000000   8.0000000   8.0000000   8.0000000   8.0000000  16.0000000

  Atom        21          22          23          24          25          26          27          28          29          30
 IAtWgt=          32          32          16          16          16          16          16          16          12          12
 AtmWgt=  31.9720718  31.9720718  15.9949146  15.9949146  15.9949146  15.9949146  15.9949146  15.9949146  12.0000000  12.0000000
 NucSpn=           0           0           0           0           0           0           0           0           0           0
 AtZEff=  -0.0000000  -0.0000000  -0.0000000  -0.0000000  -0.0000000  -0.0000000  -0.0000000  -0.0000000  -0.0000000  -0.0000000
 NQMom=    0.0000000   0.0000000   0.0000000   0.0000000   0.0000000   0.0000000   0.0000000   0.0000000   0.0000000   0.0000000
 NMagM=    0.0000000   0.0000000   0.0000000   0.0000000   0.0000000   0.0000000   0.0000000   0.0000000   0.0000000   0.0000000
 AtZNuc=  16.0000000  16.0000000   8.0000000   8.0000000   8.0000000   8.0000000   8.0000000   8.0000000   6.0000000   6.0000000

  Atom        31          32          33          34          35          36          37          38          39          40
 IAtWgt=          12          19          19          19          19          19          19          19          19          19
 AtmWgt=  12.0000000  18.9984032  18.9984032  18.9984032  18.9984032  18.9984032  18.9984032  18.9984032  18.9984032  18.9984032
 NucSpn=           0           1           1           1           1           1           1           1           1           1
 AtZEff=  -0.0000000  -0.0000000  -0.0000000  -0.0000000  -0.0000000  -0.0000000  -0.0000000  -0.0000000  -0.0000000  -0.0000000
 NQMom=    0.0000000   0.0000000   0.0000000   0.0000000   0.0000000   0.0000000   0.0000000   0.0000000   0.0000000   0.0000000
 NMagM=    0.0000000   2.6288670   2.6288670   2.6288670   2.6288670   2.6288670   2.6288670   2.6288670   2.6288670   2.6288670
 AtZNuc=   6.0000000   9.0000000   9.0000000   9.0000000   9.0000000   9.0000000   9.0000000   9.0000000   9.0000000   9.0000000

  Atom        41          42          43          44          45          46          47          48          49          50
 IAtWgt=          12           1          12          12          12          12          12          12           1           1
 AtmWgt=  12.0000000   1.0078250  12.0000000  12.0000000  12.0000000  12.0000000  12.0000000  12.0000000   1.0078250   1.0078250
 NucSpn=           0           1           0           0           0           0           0           0           1           1
 AtZEff=  -0.0000000  -0.0000000  -0.0000000  -0.0000000  -0.0000000  -0.0000000  -0.0000000  -0.0000000  -0.0000000  -0.0000000
 NQMom=    0.0000000   0.0000000   0.0000000   0.0000000   0.0000000   0.0000000   0.0000000   0.0000000   0.0000000   0.0000000
 NMagM=    0.0000000   2.7928460   0.0000000   0.0000000   0.0000000   0.0000000   0.0000000   0.0000000   2.7928460   2.7928460
 AtZNuc=   6.0000000   1.0000000   6.0000000   6.0000000   6.0000000   6.0000000   6.0000000   6.0000000   1.0000000   1.0000000

  Atom        51          52          53          54          55          56          57          58          59          60
 IAtWgt=           1          14          14          14          14          12           1         174          16          12
 AtmWgt=   1.0078250  14.0030740  14.0030740  14.0030740  14.0030740  12.0000000   1.0078250 173.9390000  15.9949146  12.0000000
 NucSpn=           1           2           2           2           2           0           1           0           0           0
 AtZEff=  -0.0000000  -0.0000000  -0.0000000  -0.0000000  -0.0000000  -0.0000000  -0.0000000  -0.0000000  -0.0000000  -0.0000000
 NQMom=    0.0000000   2.0440000   2.0440000   2.0440000   2.0440000   0.0000000   0.0000000   0.0000000   0.0000000   0.0000000
 NMagM=    2.7928460   0.4037610   0.4037610   0.4037610   0.4037610   0.0000000   2.7928460   0.0000000   0.0000000   0.0000000
 AtZNuc=   1.0000000   7.0000000   7.0000000   7.0000000   7.0000000   6.0000000   1.0000000  70.0000000   8.0000000   6.0000000

  Atom        61          62          63          64          65          66          67
 IAtWgt=           1           1           1          12           1           1           1
 AtmWgt=   1.0078250   1.0078250   1.0078250  12.0000000   1.0078250   1.0078250   1.0078250
 NucSpn=           1           1           1           0           1           1           1
 AtZEff=  -0.0000000  -0.0000000  -0.0000000  -0.0000000  -0.0000000  -0.0000000  -0.0000000
 NQMom=    0.0000000   0.0000000   0.0000000   0.0000000   0.0000000   0.0000000   0.0000000
 NMagM=    2.7928460   2.7928460   2.7928460   0.0000000   2.7928460   2.7928460   2.7928460
 AtZNuc=   1.0000000   1.0000000   1.0000000   6.0000000   1.0000000   1.0000000   1.0000000
 Leave Link  101 at Mon Mar  3 13:41:48 2025, MaxMem= 82678120448 cpu:               5.0 elap:               0.3
 (Enter /sysapps/ubuntu-applications/gaussian-new/avx/g16/l103.exe)

 GradGradGradGradGradGradGradGradGradGradGradGradGradGradGradGradGradGrad
 Berny optimization.
 Initialization pass.
 Trust Radius=3.00D-01 FncErr=1.00D-07 GrdErr=1.00D-07 EigMax=2.50D+02 EigMin=1.00D-04
 Number of steps in this run=      2 maximum allowed number of steps=      2.
 GradGradGradGradGradGradGradGradGradGradGradGradGradGradGradGradGradGrad

 Leave Link  103 at Mon Mar  3 13:41:48 2025, MaxMem= 82678120448 cpu:               1.1 elap:               0.1
 (Enter /sysapps/ubuntu-applications/gaussian-new/avx/g16/l202.exe)
 Stoichiometry    C22H16F9N4O12S3Yb(2)
 Framework group  C1[X(C22H16F9N4O12S3Yb)]
 Deg. of freedom   195
 Full point group                 C1      NOp   1
 Largest Abelian subgroup         C1      NOp   1
 Largest concise Abelian subgroup C1      NOp   1
                         Standard orientation:                         
 ---------------------------------------------------------------------
 Center     Atomic      Atomic             Coordinates (Angstroms)
 Number     Number       Type             X           Y           Z
 ---------------------------------------------------------------------
      1          6           0       -4.723709    1.365075    0.754767
      2          6           0       -5.567895    2.125498   -0.063455
      3          6           0       -6.234299    3.231562    0.463488
      4          6           0       -6.050497    3.583324    1.803140
      5          6           0       -5.200339    2.829575    2.616285
      6          6           0       -4.535928    1.717783    2.096948
      7          6           0       -1.961269   -1.049529    0.306246
      8          6           0       -1.446651   -0.528850   -1.085464
      9          6           0       -0.812316   -1.049257    1.380903
     10          1           0       -5.695866    1.852349   -1.114562
     11          1           0       -6.889802    3.825704   -0.176388
     12          1           0       -6.566418    4.454139    2.213571
     13          1           0       -5.048809    3.110346    3.660491
     14          1           0       -3.862806    1.132751    2.727025
     15          8           0       -0.228271    0.002876    1.532967
     16          8           0       -0.722116    0.445691   -1.082773
     17          8           0        2.643193   -1.086056    1.413072
     18          8           0        2.221629   -0.862511   -1.891063
     19          8           0        0.666672    2.964167    0.264413
     20         16           0        1.571111    3.605325   -0.718966
     21         16           0        3.394159   -0.109666    2.241777
     22         16           0        1.581909   -2.164254   -1.591287
     23          8           0        2.442529    2.565840   -1.328371
     24          8           0        2.204224    4.846734   -0.330331
     25          8           0        2.918482    1.261337    1.926689
     26          8           0        3.592058   -0.440716    3.635672
     27          8           0        0.637851   -2.017054   -0.452710
     28          8           0        1.061947   -2.912050   -2.723359
     29          6           0        2.960102   -3.224976   -0.915950
     30          6           0        5.058879   -0.133387    1.466158
     31          6           0        0.452960    4.058792   -2.103113
     32          9           0        2.544902   -3.849170    0.171497
     33          9           0        4.021692   -2.495424   -0.636371
     34          9           0        3.288171   -4.124750   -1.829533
     35          9           0        4.935605    0.182415    0.179613
     36          9           0        5.598204   -1.337017    1.565496
     37          9           0        5.852971    0.748377    2.050680
     38          9           0       -0.124249    2.971995   -2.596307
     39          9           0        1.145234    4.651189   -3.064089
     40          9           0       -0.486371    4.887330   -1.673013
     41          6           0       -4.032496    0.159988    0.178318
     42          1           0       -3.897770    0.282280   -0.911554
     43          6           0       -4.878493   -1.160690    0.353044
     44          6           0       -6.164708   -1.049181   -0.348183
     45          6           0       -5.082282   -1.418981    1.793718
     46          6           0       -2.016820   -3.524587   -0.465248
     47          6           0       -4.082368   -4.143618   -1.497785
     48          6           0       -2.702873   -4.381605   -1.275167
     49          1           0       -0.942626   -3.632845   -0.299908
     50          1           0       -4.689388   -4.795399   -2.128777
     51          1           0       -2.206410   -5.218495   -1.766568
     52          7           0       -7.175451   -0.872709   -0.880418
     53          7           0       -5.198478   -1.621826    2.926348
     54          7           0       -4.085214   -2.270506   -0.217903
     55          7           0       -4.720616   -3.098147   -0.985638
     56          6           0       -2.708667   -2.424566    0.252059
     57          1           0       -2.786652   -2.737375    1.320507
     58         70           0        1.553395    0.643024   -0.051243
     59          8           0       -2.824838   -0.078420    0.847829
     60          6           0       -0.583210   -2.210007    2.285784
     61          1           0        0.347954   -2.027672    2.835456
     62          1           0       -1.422814   -2.258962    3.001605
     63          1           0       -0.523709   -3.170626    1.760799
     64          6           0       -1.870945   -1.164178   -2.368849
     65          1           0       -1.199453   -2.016546   -2.570115
     66          1           0       -2.909276   -1.522233   -2.365962
     67          1           0       -1.729748   -0.431554   -3.173608
 ---------------------------------------------------------------------
 Rotational constants (GHZ):           0.0673577           0.0403062           0.0321235
 Leave Link  202 at Mon Mar  3 13:41:48 2025, MaxMem= 82678120448 cpu:               2.1 elap:               0.1
 (Enter /sysapps/ubuntu-applications/gaussian-new/avx/g16/l301.exe)
 General basis read from cards:  (5D, 7F)
 Centers:      10     11     12     13     14     42     49     50     51     57
 Centers:      61     62     63     65     66     67
 S 3 1.00
     Exponent=  1.3010701000D+01 Coefficients=  1.9682158000D-02
     Exponent=  1.9622572000D+00 Coefficients=  1.3796524000D-01
     Exponent=  4.4453796000D-01 Coefficients=  4.7831935000D-01
 S 1 1.00
     Exponent=  1.2194962000D-01 Coefficients=  1.0000000000D+00
 P 1 1.00
     Exponent=  8.0000000000D-01 Coefficients=  1.0000000000D+00
 ****
 Centers:       1      2      3      4      5      6      7      8      9     29
 Centers:      30     31     41     43     44     45     46     47     48     56
 Centers:      60     64
 S 5 1.00
     Exponent=  1.2384016938D+03 Coefficients=  5.4568832082D-03
     Exponent=  1.8629004992D+02 Coefficients=  4.0638409211D-02
     Exponent=  4.2251176346D+01 Coefficients=  1.8025593888D-01
     Exponent=  1.1676557932D+01 Coefficients=  4.6315121755D-01
     Exponent=  3.5930506482D+00 Coefficients=  4.4087173314D-01
 S 1 1.00
     Exponent=  4.0245147363D-01 Coefficients=  1.0000000000D+00
 S 1 1.00
     Exponent=  1.3090182668D-01 Coefficients=  1.0000000000D+00
 P 3 1.00
     Exponent=  9.4680970621D+00 Coefficients=  3.8387871728D-02
     Exponent=  2.0103545142D+00 Coefficients=  2.1117025112D-01
     Exponent=  5.4771004707D-01 Coefficients=  5.1328172114D-01
 P 1 1.00
     Exponent=  1.5268613795D-01 Coefficients=  1.0000000000D+00
 D 1 1.00
     Exponent=  8.0000000000D-01 Coefficients=  1.0000000000D+00
 ****
 Centers:      52     53     54     55
 S 5 1.00
     Exponent=  1.7128415853D+03 Coefficients= -5.3934125305D-03
     Exponent=  2.5764812677D+02 Coefficients= -4.0221581118D-02
     Exponent=  5.8458245853D+01 Coefficients= -1.7931144990D-01
     Exponent=  1.6198367905D+01 Coefficients= -4.6376317823D-01
     Exponent=  5.0052600809D+00 Coefficients= -4.4171422662D-01
 S 1 1.00
     Exponent=  5.8731856571D-01 Coefficients=  1.0000000000D+00
 S 1 1.00
     Exponent=  1.8764592253D-01 Coefficients=  1.0000000000D+00
 P 3 1.00
     Exponent=  1.3571470233D+01 Coefficients= -4.0072398852D-02
     Exponent=  2.9257372874D+00 Coefficients= -2.1807045028D-01
     Exponent=  7.9927750754D-01 Coefficients= -5.1294466049D-01
 P 1 1.00
     Exponent=  2.1954348034D-01 Coefficients=  1.0000000000D+00
 D 1 1.00
     Exponent=  1.0000000000D+00 Coefficients=  1.0000000000D+00
 ****
 Centers:      15     16     17     18     19     23     24     25     26     27
 Centers:      28     59
 S 5 1.00
     Exponent=  2.2661767785D+03 Coefficients= -5.3431809926D-03
     Exponent=  3.4087010191D+02 Coefficients= -3.9890039230D-02
     Exponent=  7.7363135167D+01 Coefficients= -1.7853911985D-01
     Exponent=  2.1479644940D+01 Coefficients= -4.6427684959D-01
     Exponent=  6.6589433124D+00 Coefficients= -4.4309745172D-01
 S 1 1.00
     Exponent=  8.0975975668D-01 Coefficients=  1.0000000000D+00
 S 1 1.00
     Exponent=  2.5530772234D-01 Coefficients=  1.0000000000D+00
 P 3 1.00
     Exponent=  1.7721504317D+01 Coefficients=  4.3394573193D-02
     Exponent=  3.8635505440D+00 Coefficients=  2.3094120765D-01
     Exponent=  1.0480920883D+00 Coefficients=  5.1375311064D-01
 P 1 1.00
     Exponent=  2.7641544411D-01 Coefficients=  1.0000000000D+00
 D 1 1.00
     Exponent=  1.2000000000D+00 Coefficients=  1.0000000000D+00
 ****
 Centers:      32     33     34     35     36     37     38     39     40
 S 5 1.00
     Exponent=  2.8948325990D+03 Coefficients= -5.3408255515D-03
     Exponent=  4.3541939120D+02 Coefficients= -3.9904258866D-02
     Exponent=  9.8843328866D+01 Coefficients= -1.7912768038D-01
     Exponent=  2.7485198001D+01 Coefficients= -4.6758090825D-01
     Exponent=  8.5405498171D+00 Coefficients= -4.4653131020D-01
 S 1 1.00
     Exponent=  1.0654578038D+00 Coefficients=  1.0000000000D+00
 S 1 1.00
     Exponent=  3.3247346748D-01 Coefficients=  1.0000000000D+00
 P 3 1.00
     Exponent=  2.2696633924D+01 Coefficients= -4.5212874436D-02
     Exponent=  4.9872339257D+00 Coefficients= -2.3754317067D-01
     Exponent=  1.3491613954D+00 Coefficients= -5.1287353587D-01
 P 1 1.00
     Exponent=  3.4829881977D-01 Coefficients=  1.0000000000D+00
 D 1 1.00
     Exponent=  1.4000000000D+00 Coefficients=  1.0000000000D+00
 ****
 Centers:      20     21     22
 S 5 1.00
     Exponent=  9.1849303010D+03 Coefficients= -2.2294387756D-03
     Exponent=  1.3815105503D+03 Coefficients= -1.6683029937D-02
     Exponent=  3.1387147580D+02 Coefficients= -7.5262436116D-02
     Exponent=  8.8053870623D+01 Coefficients= -1.9376827038D-01
     Exponent=  2.7039914905D+01 Coefficients= -1.7718020803D-01
 S 3 1.00
     Exponent=  4.5648731303D+01 Coefficients= -1.0736062573D-01
     Exponent=  4.9664522326D+00 Coefficients=  6.5066293018D-01
     Exponent=  2.0116242047D+00 Coefficients=  5.9712155354D-01
 S 1 1.00
     Exponent=  3.5661077013D-01 Coefficients=  1.0000000000D+00
 S 1 1.00
     Exponent=  1.3507221477D-01 Coefficients=  1.0000000000D+00
 P 5 1.00
     Exponent=  2.6198233439D+02 Coefficients= -9.2729929822D-03
     Exponent=  6.1306894736D+01 Coefficients= -6.6547669241D-02
     Exponent=  1.9103729887D+01 Coefficients= -2.4828595903D-01
     Exponent=  6.6567720378D+00 Coefficients= -4.8703847402D-01
     Exponent=  2.3959635161D+00 Coefficients= -3.9337850312D-01
 P 1 1.00
     Exponent=  6.1776161679D-01 Coefficients=  1.0000000000D+00
 P 1 1.00
     Exponent=  1.6993376871D-01 Coefficients=  1.0000000000D+00
 D 1 1.00
     Exponent=  5.5000000000D-01 Coefficients=  1.0000000000D+00
 ****
 Centers:      58
 S 5 1.00
     Exponent=  9.1972903000D+04 Coefficients=  5.1000000000D-05
     Exponent=  1.3787371000D+04 Coefficients=  3.8600000000D-04
     Exponent=  3.1236135000D+03 Coefficients=  1.8440000000D-03
     Exponent=  8.7147540000D+02 Coefficients=  5.3560000000D-03
     Exponent=  2.5046300000D+02 Coefficients=  8.8590000000D-03
 S 1 1.00
     Exponent=  5.8282700000D+01 Coefficients=  1.0000000000D+00
 S 1 1.00
     Exponent=  4.1630500000D+01 Coefficients=  1.0000000000D+00
 S 1 1.00
     Exponent=  2.0216400000D+01 Coefficients=  1.0000000000D+00
 S 1 1.00
     Exponent=  4.9972000000D+00 Coefficients=  1.0000000000D+00
 S 1 1.00
     Exponent=  2.4822000000D+00 Coefficients=  1.0000000000D+00
 S 1 1.00
     Exponent=  9.1790000000D-01 Coefficients=  1.0000000000D+00
 S 1 1.00
     Exponent=  3.8530000000D-01 Coefficients=  1.0000000000D+00
 S 1 1.00
     Exponent=  6.1400000000D-02 Coefficients=  1.0000000000D+00
 S 1 1.00
     Exponent=  2.5000000000D-02 Coefficients=  1.0000000000D+00
 P 3 1.00
     Exponent=  1.2274108000D+01 Coefficients= -1.5252141000D-01
     Exponent=  1.0695631000D+01 Coefficients= -2.0243492000D-01
     Exponent=  2.0359782000D+00 Coefficients= -1.9621046000D-01
 P 6 1.00
     Exponent=  1.4975567000D+03 Coefficients= -1.0182934000D-03
     Exponent=  3.7504101000D+02 Coefficients= -6.0919401000D-03
     Exponent=  1.2869727000D+02 Coefficients= -1.7077693000D-02
     Exponent=  4.5270759000D+01 Coefficients= -3.5655508000D-02
     Exponent=  1.4906971000D+01 Coefficients=  2.3732226000D-01
     Exponent=  5.6450858000D+00 Coefficients= -3.0559689000D-01
 P 1 1.00
     Exponent=  3.6752106000D+00 Coefficients=  1.0000000000D+00
 P 1 1.00
     Exponent=  1.3296961000D+00 Coefficients=  1.0000000000D+00
 P 1 1.00
     Exponent=  5.5338966000D-01 Coefficients=  1.0000000000D+00
 P 1 1.00
     Exponent=  2.2382350000D-01 Coefficients=  1.0000000000D+00
 P 1 1.00
     Exponent=  6.8350467650D-02 Coefficients=  1.0000000000D+00
 P 1 1.00
     Exponent=  2.5355670803D-02 Coefficients=  1.0000000000D+00
 D 6 1.00
     Exponent=  4.6976060000D+02 Coefficients=  1.9840000000D-03
     Exponent=  1.4261280000D+02 Coefficients=  1.6013000000D-02
     Exponent=  5.5126700000D+01 Coefficients=  6.3153000000D-02
     Exponent=  2.3441500000D+01 Coefficients=  1.3780000000D-01
     Exponent=  9.4951000000D+00 Coefficients=  2.8549800000D-01
     Exponent=  4.5792000000D+00 Coefficients=  4.3830900000D-01
 D 1 1.00
     Exponent=  2.1646000000D+00 Coefficients=  1.0000000000D+00
 D 1 1.00
     Exponent=  9.2380000000D-01 Coefficients=  1.0000000000D+00
 D 1 1.00
     Exponent=  3.1070000000D-01 Coefficients=  1.0000000000D+00
 D 1 1.00
     Exponent=  9.1400000000D-02 Coefficients=  1.0000000000D+00
 F 5 1.00
     Exponent=  1.4202930000D+02 Coefficients=  5.9570000000D-03
     Exponent=  5.1086200000D+01 Coefficients=  5.3180000000D-02
     Exponent=  2.2874100000D+01 Coefficients=  1.7807600000D-01
     Exponent=  1.0502500000D+01 Coefficients=  3.0060000000D-01
     Exponent=  4.7872000000D+00 Coefficients=  3.5034200000D-01
 F 1 1.00
     Exponent=  2.1088000000D+00 Coefficients=  1.0000000000D+00
 F 1 1.00
     Exponent=  8.6090000000D-01 Coefficients=  1.0000000000D+00
 F 1 1.00
     Exponent=  3.0600000000D-01 Coefficients=  1.0000000000D+00
 G 1 1.00
     Exponent=  5.1330000000D-01 Coefficients=  1.0000000000D+00
 ****
 ======================================================================================================
                                       Pseudopotential Parameters
 ======================================================================================================
  Center     Atomic      Valence      Angular      Power
  Number     Number     Electrons     Momentum     of R      Exponent        Coefficient   SO-Coeffient
 ======================================================================================================
    1          6
                                   No pseudopotential on this center.
    2          6
                                   No pseudopotential on this center.
    3          6
                                   No pseudopotential on this center.
    4          6
                                   No pseudopotential on this center.
    5          6
                                   No pseudopotential on this center.
    6          6
                                   No pseudopotential on this center.
    7          6
                                   No pseudopotential on this center.
    8          6
                                   No pseudopotential on this center.
    9          6
                                   No pseudopotential on this center.
   10          1
                                   No pseudopotential on this center.
   11          1
                                   No pseudopotential on this center.
   12          1
                                   No pseudopotential on this center.
   13          1
                                   No pseudopotential on this center.
   14          1
                                   No pseudopotential on this center.
   15          8
                                   No pseudopotential on this center.
   16          8
                                   No pseudopotential on this center.
   17          8
                                   No pseudopotential on this center.
   18          8
                                   No pseudopotential on this center.
   19          8
                                   No pseudopotential on this center.
   20         16
                                   No pseudopotential on this center.
   21         16
                                   No pseudopotential on this center.
   22         16
                                   No pseudopotential on this center.
   23          8
                                   No pseudopotential on this center.
   24          8
                                   No pseudopotential on this center.
   25          8
                                   No pseudopotential on this center.
   26          8
                                   No pseudopotential on this center.
   27          8
                                   No pseudopotential on this center.
   28          8
                                   No pseudopotential on this center.
   29          6
                                   No pseudopotential on this center.
   30          6
                                   No pseudopotential on this center.
   31          6
                                   No pseudopotential on this center.
   32          9
                                   No pseudopotential on this center.
   33          9
                                   No pseudopotential on this center.
   34          9
                                   No pseudopotential on this center.
   35          9
                                   No pseudopotential on this center.
   36          9
                                   No pseudopotential on this center.
   37          9
                                   No pseudopotential on this center.
   38          9
                                   No pseudopotential on this center.
   39          9
                                   No pseudopotential on this center.
   40          9
                                   No pseudopotential on this center.
   41          6
                                   No pseudopotential on this center.
   42          1
                                   No pseudopotential on this center.
   43          6
                                   No pseudopotential on this center.
   44          6
                                   No pseudopotential on this center.
   45          6
                                   No pseudopotential on this center.
   46          6
                                   No pseudopotential on this center.
   47          6
                                   No pseudopotential on this center.
   48          6
                                   No pseudopotential on this center.
   49          1
                                   No pseudopotential on this center.
   50          1
                                   No pseudopotential on this center.
   51          1
                                   No pseudopotential on this center.
   52          7
                                   No pseudopotential on this center.
   53          7
                                   No pseudopotential on this center.
   54          7
                                   No pseudopotential on this center.
   55          7
                                   No pseudopotential on this center.
   56          6
                                   No pseudopotential on this center.
   57          1
                                   No pseudopotential on this center.
   58         70           42
                                      H and up 
                                                     2        1.0000000        0.00000000    0.00000000
                                      S - H
                                                     2       32.4244840      891.01377700    0.00000000
                                      P - H
                                                     2       18.6562320      264.03695300    0.00000000
                                      D - H
                                                     2       10.4902220       73.92391900    0.00000000
                                      F - H
                                                     2       20.7741830      -39.59217300    0.00000000
                                      G - H
                                                     2       28.4310280      -34.63863800    0.00000000
   59          8
                                   No pseudopotential on this center.
   60          6
                                   No pseudopotential on this center.
   61          1
                                   No pseudopotential on this center.
   62          1
                                   No pseudopotential on this center.
   63          1
                                   No pseudopotential on this center.
   64          6
                                   No pseudopotential on this center.
   65          1
                                   No pseudopotential on this center.
   66          1
                                   No pseudopotential on this center.
   67          1
                                   No pseudopotential on this center.
 ======================================================================================================
 Ernie: Thresh=  0.10000D-02 Tol=  0.10000D-05 Strict=F.
 There are   961 symmetry adapted cartesian basis functions of A   symmetry.
 There are   888 symmetry adapted basis functions of A   symmetry.
   888 basis functions,  1612 primitive gaussians,   961 cartesian basis functions
   222 alpha electrons      221 beta electrons
       nuclear repulsion energy     10794.7928830967 Hartrees.
 IExCor= 7252 DFT=T Ex+Corr=MN15 ExCW=0 ScaHFX=  0.440000
 ScaDFX=  1.000000  1.000000  1.000000  1.000000 ScalE2=  1.000000  1.000000
 IRadAn=      5 IRanWt=     -1 IRanGd=            0 ICorTp=0 IEmpDi=  4
 NAtoms=   67 NActive=   67 NUniq=   67 SFac= 1.00D+00 NAtFMM=   60 NAOKFM=T Big=T
 Integral buffers will be    131072 words long.
 Raffenetti 2 integral format.
 Two-electron integral symmetry is turned on.
 Force inversion solution in PCM.
 ------------------------------------------------------------------------------
 Polarizable Continuum Model (PCM)
 =================================
 Model                : PCM.
 Atomic radii         : SMD-Coulomb.
 Polarization charges : Total charges.
 Charge compensation  : None.
 Solution method      : Matrix inversion.
 Cavity type          : VdW (van der Waals Surface) (Alpha=1.000).
 Cavity algorithm     : GePol (No added spheres)
                        Default sphere list used, NSphG=   67.
                        Lebedev-Laikov grids with approx.  5.0 points / Ang**2.
                        Smoothing algorithm: York/Karplus (Gamma=1.0000).
                        Polarization charges: spherical gaussians, with
                                              point-specific exponents (IZeta= 3).
                        Self-potential: point-specific (ISelfS= 7).
                        Self-field    : sphere-specific E.n sum rule (ISelfD= 2).
 1st derivatives      : Analytical E(r).r(x)/FMM algorithm (CHGder, D1EAlg=3).
                        Cavity 1st derivative terms included.
 2nd derivatives      : Analytical E(r).r(xy)/FMM algorithm (CHGder, D2EAlg=3).
                        Cavity 2nd derivative terms included.
 Solvent              : DiChloroEthane, Eps=  10.125000 Eps(inf)=   2.087447
 ------------------------------------------------------------------------------
 GePol: Number of generator spheres                  =      67
 GePol: Total number of spheres                      =      67
 GePol: Number of exposed spheres                    =      66 ( 98.51%)
 GePol: Number of points                             =    4869
 GePol: Average weight of points                     =       0.13
 GePol: Minimum weight of points                     =   0.29D-11
 GePol: Maximum weight of points                     =    0.21501
 GePol: Number of points with low weight             =     261
 GePol: Fraction of low-weight points (<1% of avg)   =       5.36%
 GePol: Cavity surface area                          =    637.096 Ang**2
 GePol: Cavity volume                                =    752.398 Ang**3
 ------------------------------------------------------------------------------
 Atomic radii for non-electrostatic terms: SMD-CDS.
 ------------------------------------------------------------------------------
 PCM non-electrostatic energy =         0.0044741955 Hartrees.
 Nuclear repulsion after PCM non-electrostatic terms =    10794.7973572922 Hartrees.
 Leave Link  301 at Mon Mar  3 13:41:49 2025, MaxMem= 82678120448 cpu:              16.5 elap:               0.8
 (Enter /sysapps/ubuntu-applications/gaussian-new/avx/g16/l302.exe)
 NPDir=0 NMtPBC=     1 NCelOv=     1 NCel=       1 NClECP=     1 NCelD=      1
         NCelK=      1 NCelE2=     1 NClLst=     1 CellRange=     0.0.
 One-electron integrals computed using PRISM.
 One-electron integral symmetry used in STVInt
   1 Symmetry operations used in ECPInt.
 ECPInt:  NShTT=   73153 NPrTT=  279412 LenC2=   56249 LenP2D=  130873.
 LDataN:  DoStor=T MaxTD1= 9 Len=  602
 NBasis=   888 RedAO= T EigKep=  2.46D-04  NBF=   888
 NBsUse=   888 1.00D-06 EigRej= -1.00D+00 NBFU=   888
 Precomputing XC quadrature grid using
 IXCGrd= 4 IRadAn=           5 IRanWt=          -1 IRanGd=           0 AccXCQ= 0.00D+00.
 Defaulting to unpruned grid for atomic number  70.
 Generated NRdTot=       0 NPtTot=           0 NUsed=           0 NTot=          32
 NSgBfM=   906   903   906   906   906 MxSgAt=    67 MxSgA2=    67.
 Leave Link  302 at Mon Mar  3 13:41:51 2025, MaxMem= 82678120448 cpu:              63.7 elap:               2.7
 (Enter /sysapps/ubuntu-applications/gaussian-new/avx/g16/l303.exe)
 DipDrv:  MaxL=1.
 Leave Link  303 at Mon Mar  3 13:41:52 2025, MaxMem= 82678120448 cpu:               4.9 elap:               0.3
 (Enter /sysapps/ubuntu-applications/gaussian-new/avx/g16/l401.exe)
 ExpMin= 2.50D-02 ExpMax= 9.20D+04 ExpMxC= 1.38D+04 IAcc=3 IRadAn=         5 AccDes= 0.00D+00
 Harris functional with IExCor= 1009 and IRadAn=       5 diagonalized for initial guess.
 HarFok:  IExCor= 1009 AccDes= 0.00D+00 IRadAn=         5 IDoV= 1 UseB2=F ITyADJ=14
 ICtDFT=  3500011 ScaDFX=  1.000000  1.000000  1.000000  1.000000
 Defaulting to unpruned grid for atomic number  70.
 FoFCou: FMM=F IPFlag=           0 FMFlag=      100000 FMFlg1=        2001
         NFxFlg=           0 DoJE=T BraDBF=F KetDBF=T FulRan=T
         wScrn=  0.000000 ICntrl=       500 IOpCl=  0 I1Cent=   200000004 NGrid=           0
         NMat0=    1 NMatS0=      1 NMatT0=    0 NMatD0=    1 NMtDS0=    0 NMtDT0=    0
 Petite list used in FoFCou.
 Harris En= -5219.43582285394    
 JPrj=0 DoOrth=F DoCkMO=F.
 Initial guess <Sx>= 0.0000 <Sy>= 0.0000 <Sz>= 0.5000 <S**2>= 0.7500 S= 0.5000
 Leave Link  401 at Mon Mar  3 13:41:58 2025, MaxMem= 82678120448 cpu:             160.7 elap:               6.7
 (Enter /sysapps/ubuntu-applications/gaussian-new/avx/g16/l502.exe)
 Integral symmetry usage will be decided dynamically.
 UHF open shell SCF:
 Using DIIS extrapolation, IDIIS=  1040.
 NGot= 82678120448 LenX= 82676240387 LenY= 82675315905
 Requested convergence on RMS density matrix=1.00D-08 within 500 cycles.
 Requested convergence on MAX density matrix=1.00D-06.
 Requested convergence on             energy=1.00D-06.
 No special actions if energy rises.
 Fock matrices will be formed incrementally for  20 cycles.

 Cycle   1  Pass 1  IDiag  1:
 FoFJK:  IHMeth= 1 ICntrl=       0 DoSepK=F KAlg= 0 I1Cent=           0 FoldK=F
 IRaf= 850000000 NMat=       1 IRICut=       1 DoRegI=T DoRafI=F ISym2E= 0 IDoP0=0 IntGTp=1.
 FoFCou: FMM=T IPFlag=           0 FMFlag=      100000 FMFlg1=        2001
         NFxFlg=           0 DoJE=F BraDBF=F KetDBF=F FulRan=T
         wScrn=  0.000000 ICntrl=         0 IOpCl=  1 I1Cent=           0 NGrid=           0
         NMat0=    1 NMatS0=      1 NMatT0=    0 NMatD0=    1 NMtDS0=    0 NMtDT0=    0
 Symmetry not used in FoFCou.
 FMM levels:  10  Number of levels for PrismC:   9
 Defaulting to unpruned grid for atomic number  70.
 Defaulting to unpruned grid for atomic number  70.
 Defaulting to unpruned grid for atomic number  70.
 Defaulting to unpruned grid for atomic number  70.
 Defaulting to unpruned grid for atomic number  70.
 Defaulting to unpruned grid for atomic number  70.
 Defaulting to unpruned grid for atomic number  70.
 Defaulting to unpruned grid for atomic number  70.
 Defaulting to unpruned grid for atomic number  70.
 Defaulting to unpruned grid for atomic number  70.
 Defaulting to unpruned grid for atomic number  70.
 Defaulting to unpruned grid for atomic number  70.
 Defaulting to unpruned grid for atomic number  70.
 Defaulting to unpruned grid for atomic number  70.
 Defaulting to unpruned grid for atomic number  70.
 Defaulting to unpruned grid for atomic number  70.
 Defaulting to unpruned grid for atomic number  70.
 Defaulting to unpruned grid for atomic number  70.
 Defaulting to unpruned grid for atomic number  70.
 Defaulting to unpruned grid for atomic number  70.
 Defaulting to unpruned grid for atomic number  70.
 Defaulting to unpruned grid for atomic number  70.
 Defaulting to unpruned grid for atomic number  70.
 Defaulting to unpruned grid for atomic number  70.
 Inv3:  Mode=1 IEnd=    71121483.
 Iteration    1 A*A^-1 deviation from unit magnitude is 8.22D-15 for   4859.
 Iteration    1 A*A^-1 deviation from orthogonality  is 6.43D-15 for   4865   4159.
 Iteration    1 A^-1*A deviation from unit magnitude is 8.22D-15 for   4859.
 Iteration    1 A^-1*A deviation from orthogonality  is 1.03D-13 for   1455   1451.
 E= -5213.61923641442    
 DIIS: error= 2.15D-01 at cycle   1 NSaved=   1.
 NSaved= 1 IEnMin= 1 EnMin= -5213.61923641442     IErMin= 1 ErrMin= 2.15D-01
 ErrMax= 2.15D-01  0.00D+00 EMaxC= 1.00D-01 BMatC= 1.38D+02 BMatP= 1.38D+02
 IDIUse=3 WtCom= 0.00D+00 WtEn= 1.00D+00
 Coeff-Com:  0.100D+01
 Coeff-En:   0.100D+01
 Coeff:      0.100D+01
 Gap=     0.262 Goal=   None    Shift=    0.000
 Gap=     0.111 Goal=   None    Shift=    0.000
 GapD=    0.111 DampG=1.000 DampE=0.125 DampFc=0.1250 IDamp=-1.
 Damping current iteration by 1.25D-01
 RMSDP=1.80D-02 MaxDP=2.52D+00              OVMax= 9.87D-01

 Cycle   2  Pass 1  IDiag  1:
 RMSU=  2.25D-03    CP:  9.94D-01
 E= -5215.04888982317     Delta-E=       -1.429653408746 Rises=F Damp=T
 DIIS: error= 8.33D-02 at cycle   2 NSaved=   2.
 NSaved= 2 IEnMin= 2 EnMin= -5215.04888982317     IErMin= 2 ErrMin= 8.33D-02
 ErrMax= 8.33D-02  0.00D+00 EMaxC= 1.00D-01 BMatC= 2.72D+01 BMatP= 1.38D+02
 IDIUse=3 WtCom= 1.67D-01 WtEn= 8.33D-01
 Coeff-Com: -0.614D+00 0.161D+01
 Coeff-En:   0.241D+00 0.759D+00
 Coeff:      0.986D-01 0.901D+00
 Gap=    -0.127 Goal=   None    Shift=    0.000
 Gap=     0.034 Goal=   None    Shift=    0.000
 RMSDP=3.58D-03 MaxDP=5.07D-01 DE=-1.43D+00 OVMax= 9.38D-01

 Cycle   3  Pass 1  IDiag  1:
 RMSU=  3.25D-03    CP:  9.72D-01  3.52D-01
 E= -5215.07197629387     Delta-E=       -0.023086470706 Rises=F Damp=F
 DIIS: error= 1.21D-01 at cycle   3 NSaved=   3.
 NSaved= 3 IEnMin= 3 EnMin= -5215.07197629387     IErMin= 2 ErrMin= 8.33D-02
 ErrMax= 1.21D-01  0.00D+00 EMaxC= 1.00D-01 BMatC= 5.59D+01 BMatP= 2.72D+01
 IDIUse=2 WtCom= 0.00D+00 WtEn= 1.00D+00
 EnCoef did     4 forward-backward iterations
 Coeff-En:   0.278D+00 0.211D+00 0.511D+00
 Coeff:      0.278D+00 0.211D+00 0.511D+00
 Gap=     0.582 Goal=   None    Shift=    0.000
 Gap=     0.584 Goal=   None    Shift=    0.000
 RMSDP=6.98D-03 MaxDP=7.60D-01 DE=-2.31D-02 OVMax= 9.99D-01

 Cycle   4  Pass 1  IDiag  1:
 RMSU=  5.49D-03    CP:  9.62D-01  1.93D+00  2.48D-01
 E= -5102.34845471945     Delta-E=      112.723521574426 Rises=F Damp=F
 DIIS: error= 5.57D-01 at cycle   4 NSaved=   4.
 NSaved= 4 IEnMin= 3 EnMin= -5215.07197629387     IErMin= 2 ErrMin= 8.33D-02
 ErrMax= 5.57D-01  0.00D+00 EMaxC= 1.00D-01 BMatC= 7.06D+02 BMatP= 2.72D+01
 IDIUse=2 WtCom= 0.00D+00 WtEn= 1.00D+00
 EnCoef did   100 forward-backward iterations
 Coeff-En:   0.450D+00 0.185D-01 0.487D+00 0.442D-01
 Coeff:      0.450D+00 0.185D-01 0.487D+00 0.442D-01
 Gap=     0.010 Goal=   None    Shift=    0.000
 Gap=     0.010 Goal=   None    Shift=    0.000
 RMSDP=6.54D-03 MaxDP=7.52D-01 DE= 1.13D+02 OVMax= 9.99D-01

 Cycle   5  Pass 1  IDiag  1:
 RMSU=  1.51D-03    CP:  9.77D-01  2.87D-01  4.47D-01  6.55D-02
 E= -5217.92897374617     Delta-E=     -115.580519026722 Rises=F Damp=F
 DIIS: error= 4.64D-02 at cycle   5 NSaved=   5.
 NSaved= 5 IEnMin= 5 EnMin= -5217.92897374617     IErMin= 5 ErrMin= 4.64D-02
 ErrMax= 4.64D-02  0.00D+00 EMaxC= 1.00D-01 BMatC= 8.19D+00 BMatP= 2.72D+01
 IDIUse=3 WtCom= 5.36D-01 WtEn= 4.64D-01
 Coeff-Com:  0.260D+00 0.602D-02 0.260D+00 0.673D-02 0.467D+00
 Coeff-En:   0.109D+00 0.000D+00 0.000D+00 0.000D+00 0.891D+00
 Coeff:      0.190D+00 0.323D-02 0.139D+00 0.361D-02 0.664D+00
 Gap=     0.780 Goal=   None    Shift=    0.000
 Gap=     0.135 Goal=   None    Shift=    0.000
 RMSDP=1.51D-03 MaxDP=2.38D-01 DE=-1.16D+02 OVMax= 9.14D-01

 Cycle   6  Pass 1  IDiag  1:
 RMSU=  6.48D-04    CP:  9.85D-01  1.98D-01  5.33D-01  8.90D-03  1.57D-01
 E= -5217.84852464677     Delta-E=        0.080449099401 Rises=F Damp=F
 DIIS: error= 6.13D-02 at cycle   6 NSaved=   6.
 NSaved= 6 IEnMin= 5 EnMin= -5217.92897374617     IErMin= 5 ErrMin= 4.64D-02
 ErrMax= 6.13D-02  0.00D+00 EMaxC= 1.00D-01 BMatC= 1.39D+01 BMatP= 8.19D+00
 IDIUse=2 WtCom= 0.00D+00 WtEn= 1.00D+00
 Coeff-En:   0.000D+00 0.000D+00 0.000D+00 0.000D+00 0.519D+00 0.481D+00
 Coeff:      0.000D+00 0.000D+00 0.000D+00 0.000D+00 0.519D+00 0.481D+00
 Gap=     0.215 Goal=   None    Shift=    0.000
 Gap=     0.091 Goal=   None    Shift=    0.000
 RMSDP=5.95D-04 MaxDP=9.27D-02 DE= 8.04D-02 OVMax= 5.84D-02

 Cycle   7  Pass 1  IDiag  1:
 RMSU=  4.13D-04    CP:  9.79D-01  2.16D-01  4.91D-01  2.44D-02  3.72D-01
                    CP:  6.75D-01
 E= -5218.50436479864     Delta-E=       -0.655840151871 Rises=F Damp=F
 DIIS: error= 7.43D-03 at cycle   7 NSaved=   7.
 NSaved= 7 IEnMin= 7 EnMin= -5218.50436479864     IErMin= 7 ErrMin= 7.43D-03
 ErrMax= 7.43D-03  0.00D+00 EMaxC= 1.00D-01 BMatC= 4.20D-01 BMatP= 8.19D+00
 IDIUse=3 WtCom= 9.26D-01 WtEn= 7.43D-02
 Coeff-Com: -0.133D+00 0.197D+00-0.967D-02-0.525D-02 0.181D+00 0.194D+00
 Coeff-Com:  0.575D+00
 Coeff-En:   0.000D+00 0.000D+00 0.000D+00 0.000D+00 0.149D+00 0.000D+00
 Coeff-En:   0.851D+00
 Coeff:     -0.123D+00 0.183D+00-0.895D-02-0.486D-02 0.179D+00 0.180D+00
 Coeff:      0.596D+00
 Gap=     0.207 Goal=   None    Shift=    0.000
 Gap=     0.171 Goal=   None    Shift=    0.000
 RMSDP=1.92D-04 MaxDP=1.76D-02 DE=-6.56D-01 OVMax= 1.36D-02

 Cycle   8  Pass 1  IDiag  1:
 RMSU=  1.69D-04    CP:  9.80D-01  2.24D-01  4.92D-01  2.57D-02  4.16D-01
                    CP:  5.96D-01  1.06D+00
 E= -5218.50348307433     Delta-E=        0.000881724303 Rises=F Damp=F
 DIIS: error= 1.45D-02 at cycle   8 NSaved=   8.
 NSaved= 8 IEnMin= 7 EnMin= -5218.50436479864     IErMin= 7 ErrMin= 7.43D-03
 ErrMax= 1.45D-02  0.00D+00 EMaxC= 1.00D-01 BMatC= 9.24D-01 BMatP= 4.20D-01
 IDIUse=2 WtCom= 0.00D+00 WtEn= 1.00D+00
 EnCoef did    14 forward-backward iterations
 Coeff-En:   0.000D+00 0.000D+00 0.000D+00 0.000D+00 0.157D+00 0.000D+00
 Coeff-En:   0.200D+00 0.643D+00
 Coeff:      0.000D+00 0.000D+00 0.000D+00 0.000D+00 0.157D+00 0.000D+00
 Coeff:      0.200D+00 0.643D+00
 Gap=     0.205 Goal=   None    Shift=    0.000
 Gap=     0.109 Goal=   None    Shift=    0.000
 RMSDP=1.06D-03 MaxDP=2.06D-01 DE= 8.82D-04 OVMax= 9.99D-01

 Cycle   9  Pass 1  IDiag  1:
 RMSU=  3.67D-04    CP:  9.76D-01  2.80D-01  4.81D-01  5.82D-02  8.94D-01
                    CP:  2.90D-01 -2.10D-01 -7.66D-01
 E= -5217.95475403524     Delta-E=        0.548729039092 Rises=F Damp=F
 DIIS: error= 4.90D-02 at cycle   9 NSaved=   9.
 NSaved= 9 IEnMin= 7 EnMin= -5218.50436479864     IErMin= 7 ErrMin= 7.43D-03
 ErrMax= 4.90D-02  0.00D+00 EMaxC= 1.00D-01 BMatC= 9.81D+00 BMatP= 4.20D-01
 IDIUse=2 WtCom= 0.00D+00 WtEn= 1.00D+00
 Coeff-En:   0.000D+00 0.000D+00 0.000D+00 0.000D+00 0.000D+00 0.000D+00
 Coeff-En:   0.000D+00 0.815D+00 0.185D+00
 Coeff:      0.000D+00 0.000D+00 0.000D+00 0.000D+00 0.000D+00 0.000D+00
 Coeff:      0.000D+00 0.815D+00 0.185D+00
 Gap=     0.175 Goal=   None    Shift=    0.000
 Gap=    -0.021 Goal=   None    Shift=    0.000
 RMSDP=1.01D-03 MaxDP=1.93D-01 DE= 5.49D-01 OVMax= 9.93D-01

 Cycle  10  Pass 1  IDiag  1:
 RMSU=  1.59D-04    CP:  9.78D-01  2.37D-01  4.68D-01  3.19D-02  5.00D-01
                    CP:  6.48D-01  1.29D+00  7.01D-01  1.56D-01
 E= -5218.55559439694     Delta-E=       -0.600840361694 Rises=F Damp=F
 DIIS: error= 4.11D-03 at cycle  10 NSaved=  10.
 NSaved=10 IEnMin=10 EnMin= -5218.55559439694     IErMin=10 ErrMin= 4.11D-03
 ErrMax= 4.11D-03  0.00D+00 EMaxC= 1.00D-01 BMatC= 6.54D-02 BMatP= 4.20D-01
 IDIUse=3 WtCom= 9.59D-01 WtEn= 4.11D-02
 Coeff-Com: -0.132D-01 0.229D-01-0.392D-02-0.233D-03-0.942D-01-0.476D-01
 Coeff-Com: -0.381D+00 0.663D+00 0.113D+00 0.741D+00
 Coeff-En:   0.000D+00 0.000D+00 0.000D+00 0.000D+00 0.000D+00 0.000D+00
 Coeff-En:   0.000D+00 0.000D+00 0.000D+00 0.100D+01
 Coeff:     -0.126D-01 0.220D-01-0.376D-02-0.223D-03-0.903D-01-0.457D-01
 Coeff:     -0.365D+00 0.636D+00 0.108D+00 0.752D+00
 Gap=     0.184 Goal=   None    Shift=    0.000
 Gap=     0.094 Goal=   None    Shift=    0.000
 RMSDP=1.16D-04 MaxDP=8.89D-03 DE=-6.01D-01 OVMax= 1.33D-02

 Cycle  11  Pass 1  IDiag  1:
 RMSU=  5.24D-05    CP:  9.78D-01  2.36D-01  4.70D-01  3.12D-02  5.06D-01
                    CP:  6.16D-01  1.32D+00  1.22D+00  2.45D-01  7.82D-01
 E= -5218.55942025225     Delta-E=       -0.003825855310 Rises=F Damp=F
 DIIS: error= 2.37D-03 at cycle  11 NSaved=  11.
 NSaved=11 IEnMin=11 EnMin= -5218.55942025225     IErMin=11 ErrMin= 2.37D-03
 ErrMax= 2.37D-03  0.00D+00 EMaxC= 1.00D-01 BMatC= 2.45D-02 BMatP= 6.54D-02
 IDIUse=3 WtCom= 9.76D-01 WtEn= 2.37D-02
 Coeff-Com: -0.292D-02 0.453D-02 0.502D-03-0.835D-04-0.234D-01-0.604D-02
 Coeff-Com: -0.188D+00 0.147D+00 0.312D-01 0.379D+00 0.658D+00
 Coeff-En:   0.000D+00 0.000D+00 0.000D+00 0.000D+00 0.000D+00 0.000D+00
 Coeff-En:   0.000D+00 0.000D+00 0.000D+00 0.102D+00 0.898D+00
 Coeff:     -0.285D-02 0.443D-02 0.490D-03-0.815D-04-0.229D-01-0.589D-02
 Coeff:     -0.184D+00 0.144D+00 0.305D-01 0.372D+00 0.664D+00
 Gap=     0.168 Goal=   None    Shift=    0.000
 Gap=     0.085 Goal=   None    Shift=    0.000
 RMSDP=4.02D-05 MaxDP=5.17D-03 DE=-3.83D-03 OVMax= 4.11D-03

 Cycle  12  Pass 1  IDiag  1:
 RMSU=  2.18D-05    CP:  9.78D-01  2.39D-01  4.69D-01  3.21D-02  5.17D-01
                    CP:  6.18D-01  1.34D+00  1.23D+00  2.55D-01  9.34D-01
                    CP:  8.13D-01
 E= -5218.56080588377     Delta-E=       -0.001385631520 Rises=F Damp=F
 DIIS: error= 3.17D-04 at cycle  12 NSaved=  12.
 NSaved=12 IEnMin=12 EnMin= -5218.56080588377     IErMin=12 ErrMin= 3.17D-04
 ErrMax= 3.17D-04  0.00D+00 EMaxC= 1.00D-01 BMatC= 8.52D-04 BMatP= 2.45D-02
 IDIUse=3 WtCom= 9.97D-01 WtEn= 3.17D-03
 Coeff-Com: -0.148D-03-0.371D-03 0.673D-03-0.363D-04 0.108D-02 0.383D-02
 Coeff-Com: -0.503D-01-0.233D-01 0.281D-02 0.100D+00 0.386D+00 0.580D+00
 Coeff-En:   0.000D+00 0.000D+00 0.000D+00 0.000D+00 0.000D+00 0.000D+00
 Coeff-En:   0.000D+00 0.000D+00 0.000D+00 0.000D+00 0.000D+00 0.100D+01
 Coeff:     -0.148D-03-0.370D-03 0.671D-03-0.361D-04 0.107D-02 0.382D-02
 Coeff:     -0.502D-01-0.232D-01 0.280D-02 0.100D+00 0.384D+00 0.581D+00
 Gap=     0.166 Goal=   None    Shift=    0.000
 Gap=     0.085 Goal=   None    Shift=    0.000
 RMSDP=1.35D-05 MaxDP=1.76D-03 DE=-1.39D-03 OVMax= 2.16D-03

 Cycle  13  Pass 1  IDiag  1:
 RMSU=  9.66D-06    CP:  9.78D-01  2.39D-01  4.69D-01  3.22D-02  5.19D-01
                    CP:  6.18D-01  1.34D+00  1.24D+00  2.60D-01  9.59D-01
                    CP:  9.09D-01  7.60D-01
 E= -5218.56091020297     Delta-E=       -0.000104319201 Rises=F Damp=F
 DIIS: error= 1.07D-04 at cycle  13 NSaved=  13.
 NSaved=13 IEnMin=13 EnMin= -5218.56091020297     IErMin=13 ErrMin= 1.07D-04
 ErrMax= 1.07D-04  0.00D+00 EMaxC= 1.00D-01 BMatC= 5.54D-05 BMatP= 8.52D-04
 IDIUse=3 WtCom= 9.99D-01 WtEn= 1.07D-03
 Coeff-Com:  0.596D-03-0.822D-03 0.511D-03-0.228D-05 0.311D-02 0.194D-02
 Coeff-Com: -0.477D-02-0.276D-01-0.189D-02 0.436D-02 0.107D+00 0.311D+00
 Coeff-Com:  0.607D+00
 Coeff-En:   0.000D+00 0.000D+00 0.000D+00 0.000D+00 0.000D+00 0.000D+00
 Coeff-En:   0.000D+00 0.000D+00 0.000D+00 0.000D+00 0.000D+00 0.000D+00
 Coeff-En:   0.100D+01
 Coeff:      0.596D-03-0.821D-03 0.511D-03-0.228D-05 0.311D-02 0.194D-02
 Coeff:     -0.477D-02-0.275D-01-0.189D-02 0.435D-02 0.106D+00 0.311D+00
 Coeff:      0.607D+00
 Gap=     0.165 Goal=   None    Shift=    0.000
 Gap=     0.086 Goal=   None    Shift=    0.000
 RMSDP=5.77D-06 MaxDP=7.49D-04 DE=-1.04D-04 OVMax= 1.21D-03

 Cycle  14  Pass 1  IDiag  1:
 RMSU=  4.25D-06    CP:  9.78D-01  2.39D-01  4.69D-01  3.22D-02  5.20D-01
                    CP:  6.18D-01  1.35D+00  1.24D+00  2.63D-01  9.67D-01
                    CP:  9.51D-01  8.38D-01  9.01D-01
 E= -5218.56092235204     Delta-E=       -0.000012149072 Rises=F Damp=F
 DIIS: error= 3.80D-05 at cycle  14 NSaved=  14.
 NSaved=14 IEnMin=14 EnMin= -5218.56092235204     IErMin=14 ErrMin= 3.80D-05
 ErrMax= 3.80D-05  0.00D+00 EMaxC= 1.00D-01 BMatC= 1.36D-05 BMatP= 5.54D-05
 IDIUse=1 WtCom= 1.00D+00 WtEn= 0.00D+00
 Coeff-Com:  0.839D-03-0.111D-02 0.122D-03 0.210D-04 0.939D-03-0.639D-04
 Coeff-Com:  0.407D-02-0.106D-01-0.689D-03-0.122D-01 0.678D-02 0.904D-01
 Coeff-Com:  0.327D+00 0.594D+00
 Coeff:      0.839D-03-0.111D-02 0.122D-03 0.210D-04 0.939D-03-0.639D-04
 Coeff:      0.407D-02-0.106D-01-0.689D-03-0.122D-01 0.678D-02 0.904D-01
 Coeff:      0.327D+00 0.594D+00
 Gap=     0.164 Goal=   None    Shift=    0.000
 Gap=     0.086 Goal=   None    Shift=    0.000
 RMSDP=2.57D-06 MaxDP=3.60D-04 DE=-1.21D-05 OVMax= 7.54D-04

 Cycle  15  Pass 1  IDiag  1:
 RMSU=  1.63D-06    CP:  9.78D-01  2.39D-01  4.69D-01  3.23D-02  5.20D-01
                    CP:  6.18D-01  1.35D+00  1.25D+00  2.64D-01  9.67D-01
                    CP:  9.62D-01  8.88D-01  1.03D+00  9.44D-01
 E= -5218.56092486393     Delta-E=       -0.000002511892 Rises=F Damp=F
 DIIS: error= 5.47D-05 at cycle  15 NSaved=  15.
 NSaved=15 IEnMin=15 EnMin= -5218.56092486393     IErMin=14 ErrMin= 3.80D-05
 ErrMax= 5.47D-05  0.00D+00 EMaxC= 1.00D-01 BMatC= 1.48D-05 BMatP= 1.36D-05
 IDIUse=1 WtCom= 1.00D+00 WtEn= 0.00D+00
 Coeff-Com:  0.331D-03-0.402D-03 0.313D-05 0.104D-04-0.773D-04-0.553D-03
 Coeff-Com:  0.206D-02 0.339D-02-0.656D-04-0.562D-02-0.120D-01-0.162D-01
 Coeff-Com:  0.389D-02 0.222D+00 0.803D+00
 Coeff:      0.331D-03-0.402D-03 0.313D-05 0.104D-04-0.773D-04-0.553D-03
 Coeff:      0.206D-02 0.339D-02-0.656D-04-0.562D-02-0.120D-01-0.162D-01
 Coeff:      0.389D-02 0.222D+00 0.803D+00
 Gap=     0.165 Goal=   None    Shift=    0.000
 Gap=     0.086 Goal=   None    Shift=    0.000
 RMSDP=1.77D-06 MaxDP=2.03D-04 DE=-2.51D-06 OVMax= 4.86D-04

 Cycle  16  Pass 1  IDiag  1:
 RMSU=  8.90D-07    CP:  9.78D-01  2.39D-01  4.69D-01  3.23D-02  5.20D-01
                    CP:  6.18D-01  1.35D+00  1.25D+00  2.64D-01  9.65D-01
                    CP:  9.66D-01  9.10D-01  1.13D+00  1.17D+00  1.09D+00
 E= -5218.56092625850     Delta-E=       -0.000001394568 Rises=F Damp=F
 DIIS: error= 2.34D-05 at cycle  16 NSaved=  16.
 NSaved=16 IEnMin=16 EnMin= -5218.56092625850     IErMin=16 ErrMin= 2.34D-05
 ErrMax= 2.34D-05  0.00D+00 EMaxC= 1.00D-01 BMatC= 3.20D-06 BMatP= 1.36D-05
 IDIUse=1 WtCom= 1.00D+00 WtEn= 0.00D+00
 Coeff-Com: -0.123D-03 0.151D-03-0.482D-04-0.208D-05-0.180D-03-0.308D-03
 Coeff-Com:  0.262D-03 0.603D-02 0.268D-04-0.210D-03-0.652D-02-0.347D-01
 Coeff-Com: -0.107D+00-0.851D-01 0.468D+00 0.760D+00
 Coeff:     -0.123D-03 0.151D-03-0.482D-04-0.208D-05-0.180D-03-0.308D-03
 Coeff:      0.262D-03 0.603D-02 0.268D-04-0.210D-03-0.652D-02-0.347D-01
 Coeff:     -0.107D+00-0.851D-01 0.468D+00 0.760D+00
 Gap=     0.165 Goal=   None    Shift=    0.000
 Gap=     0.087 Goal=   None    Shift=    0.000
 RMSDP=1.30D-06 MaxDP=1.23D-04 DE=-1.39D-06 OVMax= 3.87D-04

 Cycle  17  Pass 1  IDiag  1:
 RMSU=  5.14D-07    CP:  9.78D-01  2.39D-01  4.69D-01  3.22D-02  5.20D-01
                    CP:  6.18D-01  1.35D+00  1.25D+00  2.64D-01  9.63D-01
                    CP:  9.72D-01  9.22D-01  1.18D+00  1.31D+00  1.45D+00
                    CP:  1.11D+00
 E= -5218.56092677890     Delta-E=       -0.000000520404 Rises=F Damp=F
 DIIS: error= 4.90D-06 at cycle  17 NSaved=  17.
 NSaved=17 IEnMin=17 EnMin= -5218.56092677890     IErMin=17 ErrMin= 4.90D-06
 ErrMax= 4.90D-06  0.00D+00 EMaxC= 1.00D-01 BMatC= 2.04D-07 BMatP= 3.20D-06
 IDIUse=1 WtCom= 1.00D+00 WtEn= 0.00D+00
 Coeff-Com: -0.124D-03 0.150D-03-0.304D-04-0.313D-05-0.485D-04-0.214D-05
 Coeff-Com:  0.249D-03 0.135D-02 0.142D-04 0.104D-03-0.185D-02-0.127D-01
 Coeff-Com: -0.438D-01-0.750D-01 0.456D-01 0.318D+00 0.768D+00
 Coeff:     -0.124D-03 0.150D-03-0.304D-04-0.313D-05-0.485D-04-0.214D-05
 Coeff:      0.249D-03 0.135D-02 0.142D-04 0.104D-03-0.185D-02-0.127D-01
 Coeff:     -0.438D-01-0.750D-01 0.456D-01 0.318D+00 0.768D+00
 Gap=     0.165 Goal=   None    Shift=    0.000
 Gap=     0.087 Goal=   None    Shift=    0.000
 RMSDP=5.31D-07 MaxDP=5.76D-05 DE=-5.20D-07 OVMax= 1.74D-04

 Cycle  18  Pass 1  IDiag  1:
 RMSU=  2.34D-07    CP:  9.78D-01  2.39D-01  4.69D-01  3.22D-02  5.20D-01
                    CP:  6.18D-01  1.35D+00  1.25D+00  2.64D-01  9.62D-01
                    CP:  9.73D-01  9.27D-01  1.20D+00  1.37D+00  1.59D+00
                    CP:  1.37D+00  1.03D+00
 E= -5218.56092683973     Delta-E=       -0.000000060829 Rises=F Damp=F
 DIIS: error= 7.72D-06 at cycle  18 NSaved=  18.
 NSaved=18 IEnMin=18 EnMin= -5218.56092683973     IErMin=17 ErrMin= 4.90D-06
 ErrMax= 7.72D-06  0.00D+00 EMaxC= 1.00D-01 BMatC= 3.00D-07 BMatP= 2.04D-07
 IDIUse=1 WtCom= 1.00D+00 WtEn= 0.00D+00
 Coeff-Com: -0.419D-04 0.538D-04-0.746D-05-0.128D-05 0.435D-05 0.670D-04
 Coeff-Com:  0.226D-03-0.807D-03 0.234D-05-0.156D-03-0.693D-03-0.110D-02
 Coeff-Com: -0.139D-02-0.153D-01-0.494D-01-0.722D-02 0.357D+00 0.719D+00
 Coeff:     -0.419D-04 0.538D-04-0.746D-05-0.128D-05 0.435D-05 0.670D-04
 Coeff:      0.226D-03-0.807D-03 0.234D-05-0.156D-03-0.693D-03-0.110D-02
 Coeff:     -0.139D-02-0.153D-01-0.494D-01-0.722D-02 0.357D+00 0.719D+00
 Gap=     0.165 Goal=   None    Shift=    0.000
 Gap=     0.087 Goal=   None    Shift=    0.000
 RMSDP=2.51D-07 MaxDP=2.81D-05 DE=-6.08D-08 OVMax= 8.00D-05

 Cycle  19  Pass 1  IDiag  1:
 RMSU=  1.26D-07    CP:  9.78D-01  2.39D-01  4.69D-01  3.22D-02  5.20D-01
                    CP:  6.18D-01  1.35D+00  1.25D+00  2.64D-01  9.63D-01
                    CP:  9.74D-01  9.29D-01  1.20D+00  1.39D+00  1.64D+00
                    CP:  1.48D+00  1.24D+00  9.55D-01
 E= -5218.56092686955     Delta-E=       -0.000000029817 Rises=F Damp=F
 DIIS: error= 3.38D-06 at cycle  19 NSaved=  19.
 NSaved=19 IEnMin=19 EnMin= -5218.56092686955     IErMin=19 ErrMin= 3.38D-06
 ErrMax= 3.38D-06  0.00D+00 EMaxC= 1.00D-01 BMatC= 6.04D-08 BMatP= 2.04D-07
 IDIUse=1 WtCom= 1.00D+00 WtEn= 0.00D+00
 Coeff-Com:  0.111D-04-0.111D-04 0.494D-05 0.269D-06 0.150D-04 0.435D-04
 Coeff-Com:  0.455D-04-0.900D-03-0.111D-04-0.706D-04-0.200D-03 0.212D-02
 Coeff-Com:  0.100D-01 0.131D-01-0.286D-01-0.964D-01-0.478D-01 0.376D+00
 Coeff-Com:  0.772D+00
 Coeff:      0.111D-04-0.111D-04 0.494D-05 0.269D-06 0.150D-04 0.435D-04
 Coeff:      0.455D-04-0.900D-03-0.111D-04-0.706D-04-0.200D-03 0.212D-02
 Coeff:      0.100D-01 0.131D-01-0.286D-01-0.964D-01-0.478D-01 0.376D+00
 Coeff:      0.772D+00
 Gap=     0.165 Goal=   None    Shift=    0.000
 Gap=     0.087 Goal=   None    Shift=    0.000
 RMSDP=1.61D-07 MaxDP=1.88D-05 DE=-2.98D-08 OVMax= 5.26D-05

 Cycle  20  Pass 1  IDiag  1:
 RMSU=  6.59D-08    CP:  9.78D-01  2.39D-01  4.69D-01  3.22D-02  5.20D-01
                    CP:  6.18D-01  1.35D+00  1.25D+00  2.64D-01  9.63D-01
                    CP:  9.74D-01  9.29D-01  1.20D+00  1.39D+00  1.66D+00
                    CP:  1.53D+00  1.35D+00  1.29D+00  1.11D+00
 E= -5218.56092687798     Delta-E=       -0.000000008427 Rises=F Damp=F
 DIIS: error= 5.18D-07 at cycle  20 NSaved=  20.
 NSaved=20 IEnMin=20 EnMin= -5218.56092687798     IErMin=20 ErrMin= 5.18D-07
 ErrMax= 5.18D-07  0.00D+00 EMaxC= 1.00D-01 BMatC= 2.98D-09 BMatP= 6.04D-08
 IDIUse=1 WtCom= 1.00D+00 WtEn= 0.00D+00
 Coeff-Com:  0.938D-05-0.110D-04 0.285D-05 0.294D-06-0.341D-05 0.910D-05
 Coeff-Com: -0.571D-04-0.197D-03 0.235D-06 0.103D-03 0.852D-04 0.854D-03
 Coeff-Com:  0.327D-02 0.580D-02-0.476D-02-0.387D-01-0.797D-01 0.338D-01
 Coeff-Com:  0.364D+00 0.715D+00
 Coeff:      0.938D-05-0.110D-04 0.285D-05 0.294D-06-0.341D-05 0.910D-05
 Coeff:     -0.571D-04-0.197D-03 0.235D-06 0.103D-03 0.852D-04 0.854D-03
 Coeff:      0.327D-02 0.580D-02-0.476D-02-0.387D-01-0.797D-01 0.338D-01
 Coeff:      0.364D+00 0.715D+00
 Gap=     0.165 Goal=   None    Shift=    0.000
 Gap=     0.087 Goal=   None    Shift=    0.000
 RMSDP=6.53D-08 MaxDP=1.23D-05 DE=-8.43D-09 OVMax= 2.48D-05

 Cycle  21  Pass 1  IDiag  1:
 Restarting incremental Fock formation.
 E= -5218.56092687935     Delta-E=       -0.000000001373 Rises=F Damp=F
 DIIS: error= 7.01D-07 at cycle  21 NSaved=  20.
 NSaved=20 IEnMin=20 EnMin= -5218.56092687935     IErMin=19 ErrMin= 5.18D-07
 ErrMax= 7.01D-07  0.00D+00 EMaxC= 1.00D-01 BMatC= 2.78D-09 BMatP= 2.98D-09
 IDIUse=1 WtCom= 1.00D+00 WtEn= 0.00D+00
 Coeff-Com:  0.177D-06-0.983D-06-0.417D-06-0.698D-05-0.325D-05-0.460D-04
 Coeff-Com:  0.110D-03 0.499D-05 0.995D-04 0.166D-03 0.712D-04-0.459D-03
 Coeff-Com: -0.650D-03 0.368D-03 0.166D-02-0.134D-01-0.455D-01-0.119D-01
 Coeff-Com:  0.281D+00 0.788D+00
 Coeff:      0.177D-06-0.983D-06-0.417D-06-0.698D-05-0.325D-05-0.460D-04
 Coeff:      0.110D-03 0.499D-05 0.995D-04 0.166D-03 0.712D-04-0.459D-03
 Coeff:     -0.650D-03 0.368D-03 0.166D-02-0.134D-01-0.455D-01-0.119D-01
 Coeff:      0.281D+00 0.788D+00
 Gap=     0.165 Goal=   None    Shift=    0.000
 Gap=     0.087 Goal=   None    Shift=    0.000
 RMSDP=3.98D-08 MaxDP=4.81D-06 DE=-1.37D-09 OVMax= 1.72D-05

 Cycle  22  Pass 1  IDiag  1:
 RMSU=  3.98D-08    CP:  1.00D+00
 E= -5218.56092687985     Delta-E=       -0.000000000506 Rises=F Damp=F
 DIIS: error= 1.65D-07 at cycle  22 NSaved=  20.
 NSaved=20 IEnMin=20 EnMin= -5218.56092687985     IErMin=20 ErrMin= 1.65D-07
 ErrMax= 1.65D-07  0.00D+00 EMaxC= 1.00D-01 BMatC= 2.72D-10 BMatP= 2.78D-09
 IDIUse=1 WtCom= 1.00D+00 WtEn= 0.00D+00
 Coeff-Com: -0.211D-06-0.418D-06-0.153D-05-0.717D-05-0.422D-05 0.110D-03
 Coeff-Com:  0.244D-05-0.463D-05 0.677D-04-0.506D-04-0.464D-03-0.475D-03
 Coeff-Com:  0.910D-03 0.961D-02 0.173D-01-0.336D-01-0.142D+00-0.115D+00
 Coeff-Com:  0.342D+00 0.921D+00
 Coeff:     -0.211D-06-0.418D-06-0.153D-05-0.717D-05-0.422D-05 0.110D-03
 Coeff:      0.244D-05-0.463D-05 0.677D-04-0.506D-04-0.464D-03-0.475D-03
 Coeff:      0.910D-03 0.961D-02 0.173D-01-0.336D-01-0.142D+00-0.115D+00
 Coeff:      0.342D+00 0.921D+00
 Gap=     0.165 Goal=   None    Shift=    0.000
 Gap=     0.087 Goal=   None    Shift=    0.000
 RMSDP=3.53D-08 MaxDP=5.59D-06 DE=-5.06D-10 OVMax= 1.89D-05

 Cycle  23  Pass 1  IDiag  1:
 RMSU=  2.07D-08    CP:  1.00D+00  1.72D+00
 E= -5218.56092688008     Delta-E=       -0.000000000224 Rises=F Damp=F
 DIIS: error= 7.75D-08 at cycle  23 NSaved=  20.
 NSaved=20 IEnMin=20 EnMin= -5218.56092688008     IErMin=20 ErrMin= 7.75D-08
 ErrMax= 7.75D-08  0.00D+00 EMaxC= 1.00D-01 BMatC= 5.71D-11 BMatP= 2.72D-10
 IDIUse=1 WtCom= 1.00D+00 WtEn= 0.00D+00
 Coeff-Com: -0.303D-06-0.239D-06-0.414D-05 0.118D-04 0.317D-04 0.153D-05
 Coeff-Com: -0.323D-04-0.250D-04-0.121D-03-0.248D-03-0.909D-04 0.531D-03
 Coeff-Com:  0.446D-02 0.123D-01-0.409D-02-0.676D-01-0.116D+00-0.699D-01
 Coeff-Com:  0.437D+00 0.804D+00
 Coeff:     -0.303D-06-0.239D-06-0.414D-05 0.118D-04 0.317D-04 0.153D-05
 Coeff:     -0.323D-04-0.250D-04-0.121D-03-0.248D-03-0.909D-04 0.531D-03
 Coeff:      0.446D-02 0.123D-01-0.409D-02-0.676D-01-0.116D+00-0.699D-01
 Coeff:      0.437D+00 0.804D+00
 Gap=     0.165 Goal=   None    Shift=    0.000
 Gap=     0.087 Goal=   None    Shift=    0.000
 RMSDP=1.78D-08 MaxDP=2.66D-06 DE=-2.24D-10 OVMax= 9.75D-06

 Cycle  24  Pass 1  IDiag  1:
 RMSU=  7.53D-09    CP:  1.00D+00  2.10D+00  1.24D+00
 E= -5218.56092688006     Delta-E=        0.000000000020 Rises=F Damp=F
 DIIS: error= 5.39D-08 at cycle  24 NSaved=  20.
 NSaved=20 IEnMin=19 EnMin= -5218.56092688008     IErMin=20 ErrMin= 5.39D-08
 ErrMax= 5.39D-08  0.00D+00 EMaxC= 1.00D-01 BMatC= 2.83D-11 BMatP= 5.71D-11
 IDIUse=1 WtCom= 1.00D+00 WtEn= 0.00D+00
 Coeff-Com:  0.715D-06-0.517D-06 0.770D-05-0.105D-04-0.194D-06-0.181D-04
 Coeff-Com: -0.276D-04-0.770D-04-0.973D-04 0.203D-04 0.168D-03 0.421D-03
 Coeff-Com:  0.244D-02 0.518D-02-0.356D-02-0.269D-01-0.128D+00-0.165D-01
 Coeff-Com:  0.414D+00 0.753D+00
 Coeff:      0.715D-06-0.517D-06 0.770D-05-0.105D-04-0.194D-06-0.181D-04
 Coeff:     -0.276D-04-0.770D-04-0.973D-04 0.203D-04 0.168D-03 0.421D-03
 Coeff:      0.244D-02 0.518D-02-0.356D-02-0.269D-01-0.128D+00-0.165D-01
 Coeff:      0.414D+00 0.753D+00
 Gap=     0.165 Goal=   None    Shift=    0.000
 Gap=     0.087 Goal=   None    Shift=    0.000
 RMSDP=8.88D-09 MaxDP=1.18D-06 DE= 2.00D-11 OVMax= 5.02D-06

 Cycle  25  Pass 1  IDiag  1:
 RMSU=  4.28D-09    CP:  1.00D+00  2.26D+00  1.44D+00  1.34D+00
 E= -5218.56092688004     Delta-E=        0.000000000020 Rises=F Damp=F
 DIIS: error= 2.63D-08 at cycle  25 NSaved=  20.
 NSaved=20 IEnMin=18 EnMin= -5218.56092688008     IErMin=20 ErrMin= 2.63D-08
 ErrMax= 2.63D-08  0.00D+00 EMaxC= 1.00D-01 BMatC= 5.01D-12 BMatP= 2.83D-11
 IDIUse=1 WtCom= 1.00D+00 WtEn= 0.00D+00
 Coeff-Com: -0.366D-06 0.173D-06-0.455D-05 0.211D-06-0.539D-06-0.171D-04
 Coeff-Com: -0.516D-04-0.924D-04 0.685D-05 0.111D-03-0.305D-03-0.122D-02
 Coeff-Com:  0.225D-02 0.114D-01 0.169D-01-0.344D-01-0.116D+00-0.304D-01
 Coeff-Com:  0.346D+00 0.805D+00
 Coeff:     -0.366D-06 0.173D-06-0.455D-05 0.211D-06-0.539D-06-0.171D-04
 Coeff:     -0.516D-04-0.924D-04 0.685D-05 0.111D-03-0.305D-03-0.122D-02
 Coeff:      0.225D-02 0.114D-01 0.169D-01-0.344D-01-0.116D+00-0.304D-01
 Coeff:      0.346D+00 0.805D+00
 Gap=     0.165 Goal=   None    Shift=    0.000
 Gap=     0.087 Goal=   None    Shift=    0.000
 RMSDP=4.25D-09 MaxDP=5.73D-07 DE= 2.00D-11 OVMax= 2.17D-06

 Error on total polarization charges =  0.03261
 SCF Done:  E(UMN15) =  -5218.56092688     A.U. after   25 cycles
            NFock= 25  Conv=0.42D-08     -V/T= 2.0934
 <Sx>= 0.0000 <Sy>= 0.0000 <Sz>= 0.5000 <S**2>= 0.7635 S= 0.5067
 <L.S>=  0.00000000000    
 KE= 4.772809930802D+03 PE=-3.401229751198D+04 EE= 1.322612929700D+04
 SMD-CDS (non-electrostatic) energy       (kcal/mol) =       2.81
 (included in total energy above)
 Annihilation of the first spin contaminant:
 S**2 before annihilation     0.7635,   after     0.7501
 Leave Link  502 at Mon Mar  3 14:07:27 2025, MaxMem= 82678120448 cpu:           34727.3 elap:            1529.0
 (Enter /sysapps/ubuntu-applications/gaussian-new/avx/g16/l801.exe)
 DoSCS=F DFT=T ScalE2(SS,OS)=  1.000000  1.000000
 Range of M.O.s used for correlation:     1   888
 NBasis=   888 NAE=   222 NBE=   221 NFC=     0 NFV=     0
 NROrb=    888 NOA=   222 NOB=   221 NVA=   666 NVB=   667

 **** Warning!!: The largest alpha MO coefficient is  0.12749699D+02


 **** Warning!!: The largest beta MO coefficient is  0.12749699D+02


 **** Warning!!: The smallest beta delta epsilon is  0.86606974D-01

 Leave Link  801 at Mon Mar  3 14:07:28 2025, MaxMem= 82678120448 cpu:               2.6 elap:               0.2
 (Enter /sysapps/ubuntu-applications/gaussian-new/avx/g16/l1101.exe)
 Using compressed storage, NAtomX=    67.
 Will process     68 centers per pass.
   1 Symmetry operations used in ECPInt.
 ECPInt:  NShTT=   73153 NPrTT=  279412 LenC2=   56249 LenP2D=  130873.
 LDataN:  DoStor=T MaxTD1=10 Len=  848
 Leave Link 1101 at Mon Mar  3 14:07:41 2025, MaxMem= 82678120448 cpu:             317.2 elap:              13.6
 (Enter /sysapps/ubuntu-applications/gaussian-new/avx/g16/l1102.exe)
 Symmetrizing basis deriv contribution to polar:
 IMax=3 JMax=2 DiffMx= 0.00D+00
 Leave Link 1102 at Mon Mar  3 14:07:43 2025, MaxMem= 82678120448 cpu:               7.6 elap:               0.4
 (Enter /sysapps/ubuntu-applications/gaussian-new/avx/g16/l1110.exe)
 Forming Gx(P) for the SCF density, NAtomX=    67.
 Integral derivatives from FoFJK, PRISM(SPDF).
 Do as many integral derivatives as possible in FoFJK.
 G2DrvN: MDV=   82678114818.
 G2DrvN: will do    68 centers at a time, making    1 passes.
 Calling FoFCou, ICntrl=  3107 FMM=T I1Cent=   0 AccDes= 0.00D+00.
 FoFJK:  IHMeth= 1 ICntrl=    3107 DoSepK=F KAlg= 0 I1Cent=           0 FoldK=F
 IRaf=         0 NMat=       1 IRICut=       1 DoRegI=T DoRafI=F ISym2E= 0 IDoP0=0 IntGTp=1.
 FoFCou: FMM=T IPFlag=           0 FMFlag=      100000 FMFlg1=        2001
         NFxFlg=           0 DoJE=F BraDBF=F KetDBF=F FulRan=T
         wScrn=  0.000000 ICntrl=      3107 IOpCl=  1 I1Cent=           0 NGrid=           0
         NMat0=    1 NMatS0=      1 NMatT0=    0 NMatD0=    1 NMtDS0=    0 NMtDT0=    0
 Symmetry not used in FoFCou.
 FMM levels:  10  Number of levels for PrismC:   9
 Defaulting to unpruned grid for atomic number  70.
 Defaulting to unpruned grid for atomic number  70.
 Defaulting to unpruned grid for atomic number  70.
 Defaulting to unpruned grid for atomic number  70.
 Defaulting to unpruned grid for atomic number  70.
 Defaulting to unpruned grid for atomic number  70.
 Defaulting to unpruned grid for atomic number  70.
 Defaulting to unpruned grid for atomic number  70.
 Defaulting to unpruned grid for atomic number  70.
 Defaulting to unpruned grid for atomic number  70.
 Defaulting to unpruned grid for atomic number  70.
 Defaulting to unpruned grid for atomic number  70.
 Defaulting to unpruned grid for atomic number  70.
 Defaulting to unpruned grid for atomic number  70.
 Defaulting to unpruned grid for atomic number  70.
 Defaulting to unpruned grid for atomic number  70.
 Defaulting to unpruned grid for atomic number  70.
 Defaulting to unpruned grid for atomic number  70.
 Defaulting to unpruned grid for atomic number  70.
 Defaulting to unpruned grid for atomic number  70.
 Defaulting to unpruned grid for atomic number  70.
 Defaulting to unpruned grid for atomic number  70.
 Defaulting to unpruned grid for atomic number  70.
 Defaulting to unpruned grid for atomic number  70.
 NEqPCM:  Using equilibrium solvation (IEInf=0, Eps=  10.1250, EpsInf=   2.0874)
 G2PCM: DoFxE=T DoFxN=T DoGrad=T DoDP/DQ/DG/TGxP=FFFF NFrqRd=   0 IEInf=0 SqF1=F DoCFld=F IF1Alg=4.
 GePol: Maximum number of non-zero 1st derivatives   =     267
 End of G2Drv F.D. properties file   721 does not exist.
 End of G2Drv F.D. properties file   722 does not exist.
 End of G2Drv F.D. properties file   788 does not exist.
 Leave Link 1110 at Mon Mar  3 15:04:37 2025, MaxMem= 82678120448 cpu:           78788.6 elap:            3413.7
 (Enter /sysapps/ubuntu-applications/gaussian-new/avx/g16/l1002.exe)
 Minotr:  UHF open shell wavefunction.
          IDoAtm=11111111111111111111111111111111111111111111111111
          IDoAtm=11111111111111111
 NEqPCM:  Using equilibrium solvation (IEInf=0, Eps=  10.1250, EpsInf=   2.0874)
          Direct CPHF calculation.
          Differentiating once with respect to electric field.
                with respect to dipole field.
          Differentiating once with respect to nuclear coordinates.
          Requested convergence is 1.0D-08 RMS, and 1.0D-07 maximum.
          Secondary convergence is 1.0D-12 RMS, and 1.0D-12 maximum.
          NewPWx=T KeepS1=F KeepF1=F KeepIn=T MapXYZ=F SortEE=F KeepMc=T.
 Defaulting to unpruned grid for atomic number  70.
        20807 words used for storage of precomputed grid.
 Two-electron integrals replicated using symmetry.
          MDV=   82678120448 using IRadAn=       1.
          Solving linear equations simultaneously, MaxMat=      72.
 FoF2E skips out because all densities are zero.
 CalDSu exits because no D1Ps are significant.
 FoFJK:  IHMeth= 1 ICntrl=       0 DoSepK=F KAlg= 0 I1Cent=           0 FoldK=F
 IRaf= 800000000 NMat=      72 IRICut=       1 DoRegI=T DoRafI=F ISym2E= 2 IDoP0=3 IntGTp=3.
 Defaulting to unpruned grid for atomic number  70.
 Defaulting to unpruned grid for atomic number  70.
 Defaulting to unpruned grid for atomic number  70.
 Defaulting to unpruned grid for atomic number  70.
 Defaulting to unpruned grid for atomic number  70.
 Defaulting to unpruned grid for atomic number  70.
 Defaulting to unpruned grid for atomic number  70.
 Defaulting to unpruned grid for atomic number  70.
 Defaulting to unpruned grid for atomic number  70.
 Defaulting to unpruned grid for atomic number  70.
 Defaulting to unpruned grid for atomic number  70.
 Defaulting to unpruned grid for atomic number  70.
 Defaulting to unpruned grid for atomic number  70.
 Defaulting to unpruned grid for atomic number  70.
 Defaulting to unpruned grid for atomic number  70.
 Defaulting to unpruned grid for atomic number  70.
 Defaulting to unpruned grid for atomic number  70.
 Defaulting to unpruned grid for atomic number  70.
 Defaulting to unpruned grid for atomic number  70.
 Defaulting to unpruned grid for atomic number  70.
 Defaulting to unpruned grid for atomic number  70.
 Defaulting to unpruned grid for atomic number  70.
 Defaulting to unpruned grid for atomic number  70.
 Defaulting to unpruned grid for atomic number  70.
          There are   204 degrees of freedom in the 1st order CPHF.  IDoFFX=6 NUNeed=     3.
    204 vectors produced by pass  0 Test12= 2.95D-13 1.00D-09 XBig12= 4.80D+02 4.54D+00.
 AX will form    72 AO Fock derivatives at one time.
    201 vectors produced by pass  1 Test12= 2.95D-13 1.00D-09 XBig12= 8.75D+01 1.35D+00.
    201 vectors produced by pass  2 Test12= 2.95D-13 1.00D-09 XBig12= 4.27D+00 2.87D-01.
    201 vectors produced by pass  3 Test12= 2.95D-13 1.00D-09 XBig12= 9.81D-02 5.96D-02.
    201 vectors produced by pass  4 Test12= 2.95D-13 1.00D-09 XBig12= 1.56D-03 4.51D-03.
    201 vectors produced by pass  5 Test12= 2.95D-13 1.00D-09 XBig12= 1.54D-05 2.55D-04.
    200 vectors produced by pass  6 Test12= 2.95D-13 1.00D-09 XBig12= 1.57D-07 2.69D-05.
    117 vectors produced by pass  7 Test12= 2.95D-13 1.00D-09 XBig12= 1.38D-09 2.96D-06.
     27 vectors produced by pass  8 Test12= 2.95D-13 1.00D-09 XBig12= 1.02D-11 1.58D-07.
      3 vectors produced by pass  9 Test12= 2.95D-13 1.00D-09 XBig12= 1.39D-13 3.04D-08.
[...]
 1505,0.00002226,-0.00001091,-0.00000273,0.00000607,-0.00000979,-0.0000
 1338,-0.00036402,-0.00129468,0.00108212,0.00065292,-0.00036625,-0.0000
 8045,-0.00130181,-0.00095340,0.00059747,0.00017703,-0.00003983,0.00022
 672,0.00001208,-0.00000370,0.00000597,0.00000984,-0.00000252,-0.000048
 63,-0.00000662,0.00000067,-0.00000371,-0.00000011,-0.00000554,0.000012
 47,-0.00048185,-0.00043091,-0.00022986,-0.00000819,0.00063138,0.000556
 85,0.00004820,0.00016922,-0.00016673,0.00005277,-0.00005644,-0.0000321
 0,-0.00021291,-0.00012562,-0.00020848,-0.00022254,-0.00011676,0.000054
 50,-0.00001337,0.00002566,0.00004194,-0.00000045,-0.00000691,0.0000014
 3,0.00000722,-0.00001082,0.00000703,-0.00000175,-0.00000111,0.00000120
 ,0.13663766,-0.20645606,-0.03829288,-0.14230399,0.22453720,0.00001735,
 0.00002986,-0.00004154,0.00000173,-0.00000009,0.00000455,-0.00000225,0
 .00000440,0.00000961,-0.00000299,0.00000722,0.00000268,-0.00001312,0.0
 0000553,-0.00001026,0.00000724,0.00001035,0.00000620,-0.00371950,0.002
 14689,-0.00215962,0.01869160,-0.02188526,-0.00412235,0.00086923,0.0004
 7967,-0.00023934,0.00000482,-0.00000283,-0.00000087,-0.00000198,0.0000
 0198,-0.00000073,-0.00000116,0.00000259,0.00000057,-0.00000176,0.00000
 054,0.00000336,-0.00000290,-0.00000318,-0.00002112,-0.00007979,-0.0002
 1122,0.00000453,-0.00340896,0.00160248,-0.00052503,0.00006063,0.000097
 70,0.00009113,0.00034311,0.00043060,-0.00014901,-0.00000034,-0.0000106
 6,-0.00000811,0.00001301,0.00002523,0.00001408,-0.00002319,-0.00013742
 ,-0.00005256,-0.00369581,-0.00018068,0.00063833,-0.00000422,-0.0000010
 4,-0.00000449,-0.00000334,-0.00000673,-0.00000342,-0.00001932,0.000051
 87,-0.00003304,0.00001382,0.00002166,0.00002767,0.00140254,0.00013212,
 0.00007949,0.00094693,-0.00045660,-0.00050262,-0.00042564,0.00010837,-
 0.00022335,-0.00002965,-0.00000757,-0.00000283,-0.00001131,0.00004159,
 0.00002113,0.00008828,-0.00006457,0.00008684,0.00018888,0.00000025,0.0
 0007359,0.00015335,-0.00016716,-0.00004259,0.00000907,0.00000777,0.000
 00313,0.00000580,0.00000337,0.00000255,0.00002115,0.00001174,0.0000039
 0,-0.00001517,-0.00004825,-0.00000466,-0.00000024,-0.00000758,-0.00000
 169,0.00001444,-0.00001310,-0.00000582,0.00031992,-0.00030107,0.000717
 81,0.00016991,-0.00004522,-0.00035274,0.00014883,-0.00012337,-0.000191
 75,-0.00000518,-0.00001820,0.00000471,-0.00003192,0.00007426,0.0000078
 0,0.00122628,0.00141377,-0.00053317,0.00036327,0.00010506,0.00009185,-
 0.00061536,0.00014841,-0.00031933,-0.00011805,0.00024290,-0.00018756,-
 0.00001067,0.00002018,-0.00000982,-0.00001005,-0.00002232,0.00005182,-
 0.00002289,0.00001205,-0.00000978,0.00000515,-0.00002692,0.00002640,0.
 00012451,0.00048480,0.00026745,-0.00011225,-0.00038087,-0.00027672,0.0
 0019414,-0.00002812,-0.00026366,0.00009627,0.00003801,-0.00003562,0.00
 021518,-0.00028374,-0.00004406,-0.00043492,0.00035146,0.00146961,-0.00
 025087,-0.00006517,0.00005082,-0.00000485,0.00005373,-0.00004015,0.000
 02040,-0.00000713,0.00001299,-0.00000128,0.00006849,-0.00005802,0.0340
 2023,-0.04517852,-0.04927530,-0.03265473,0.04426162,0.05103062,0.00003
 000,-0.00007422,0.00009373,0.00000964,0.00000053,0.00001481,-0.0000052
 1,-0.00000089,-0.00000856,-0.00000166,0.00000218,0.00000132,0.00001178
 ,0.00000053,0.00000932,-0.00002853,0.00002772,-0.00001037,0.00003245,-
 0.00063895,-0.00067088,-0.00353130,0.00004504,0.00409096,-0.00014152,-
 0.00009924,0.00012458,-0.00000449,0.00000720,-0.00000266,-0.00000086,0
 .00000141,0.00000135,-0.00000033,-0.00000038,-0.00000073,-0.00000216,0
 .00000272,0.00000062,-0.00000147,-0.00000292,0.00000288,0.00010700,0.0
 0011740,-0.00010068,-0.00043348,0.00011418,-0.00165157,-0.00006412,-0.
 00001789,-0.00008271,-0.00017529,-0.00007268,-0.00000679,-0.00005257,-
 0.00010832,0.00000595,0.00007049,0.00014330,-0.00002840,0.00008291,0.0
 0001405,0.00011142,0.00083528,0.00007129,0.00017205,-0.00002603,-0.000
 05745,0.00001468,-0.00002663,-0.00005317,-0.00000379,-0.00004730,-0.00
 000469,-0.00005366,-0.00001875,0.00000405,-0.00004564,-0.00041228,0.00
 014057,-0.00023288,-0.00060368,0.00019635,-0.00012677,0.00016017,-0.00
 019601,0.00007616,0.00004820,-0.00000047,0.00000673,0.00000508,0.00008
 850,-0.00001614,-0.00002621,0.00007614,-0.00006715,-0.00012282,0.00001
 259,-0.00004499,-0.00006530,0.00008798,0.00002140,-0.00001434,-0.00000
 490,-0.00000765,-0.00001631,0.00000952,-0.00000134,-0.00002428,-0.0000
 1177,-0.00000542,-0.00001622,-0.00004985,-0.00000053,-0.00001041,-0.00
 002404,0.00002524,0.00001707,-0.00002488,-0.00000127,-0.00022167,0.000
 23135,-0.00054515,-0.00056762,-0.00001619,0.00054516,0.00012753,0.0000
 2172,0.00010986,0.00010219,-0.00004213,0.00001193,0.00001860,-0.000041
 43,-0.00003065,0.00091624,-0.00034245,0.00049075,-0.00051291,-0.000896
 27,0.00049399,-0.00072935,-0.00086730,-0.00031924,-0.00002109,-0.00003
 319,-0.00001156,0.00000639,0.00002908,-0.00003959,-0.00001150,-0.00000
 566,-0.00000246,-0.00003873,0.00002143,-0.00006181,-0.00001076,0.00001
 056,0.00001211,-0.00096120,-0.00199328,0.00304440,-0.00198252,-0.00260
 302,0.00108597,-0.00011493,-0.00005702,0.00010302,-0.00002552,-0.00003
 514,-0.00004317,0.00032181,0.00014031,0.00021805,0.00015122,-0.0000203
 4,-0.00023326,0.00003128,0.00003930,0.00000731,-0.00000093,0.00000130,
 0.00000660,-0.00000370,-0.00000020,-0.00000982,-0.00001404,0.00000031,
 0.00000080,-0.30244184,-0.09051427,0.00041622,-0.01284841,-0.00772267,
 -0.00049606,0.32362353,-0.00005100,-0.00005408,0.00010129,-0.00000550,
 -0.00000414,-0.00004553,0.00001209,-0.00000834,0.00000594,0.00000100,-
 0.00000145,0.00000077,0.00001447,0.00000322,0.00001195,-0.00002222,0.0
 0000479,0.00000550,0.00078650,0.00008091,0.00073155,-0.01128089,-0.008
 20388,0.00253987,-0.00005472,-0.00019896,0.00003984,0.00001153,-0.0000
 0910,0.00000034,0.00000147,-0.00000127,-0.00000187,-0.00000072,-0.0000
 0037,0.00000239,0.00000108,0.00000173,0.00000003,-0.00000030,0.0000013
 2,0.00001383,-0.00001835,0.00011297,-0.00006021,-0.00103988,-0.0012072
 4,-0.00455798,-0.00000213,0.00001610,0.00001283,0.00005637,0.00014387,
 0.00000922,-0.00003437,-0.00005168,0.00000272,0.00002747,0.00005122,-0
 .00001864,0.00000570,-0.00001021,-0.00000343,-0.00060202,-0.00019789,-
 0.00019143,-0.00001011,-0.00001467,-0.00000072,-0.00001007,-0.00002132
 ,0.00000156,-0.00000470,0.00000493,-0.00000120,0.00000037,0.00000037,0
 .00000418,0.00039506,-0.00002112,0.00032402,0.00056857,-0.00025591,0.0
 0008384,-0.00003898,0.00009924,-0.00003253,-0.00000060,0.00000128,-0.0
 0000126,-0.00002237,0.00005212,0.00000944,0.00000357,-0.00003601,0.000
 03289,0.00006736,-0.00000436,0.00002573,0.00002358,-0.00003786,-0.0000
 0901,0.00000135,0.00000080,0.00000164,0.00000010,0.00000009,0.00000100
 ,0.00000066,-0.00000015,0.,-0.00000158,-0.00002757,-0.00001093,0.00000
 091,-0.00001082,0.00000539,0.00002039,-0.00001776,-0.00000469,-0.00000
 467,0.00033762,-0.00032809,0.00018734,-0.00029264,0.00047014,-0.000197
 42,0.00022310,0.00002760,-0.00004145,0.00002674,-0.00000467,0.00006100
 ,-0.00011159,-0.00004866,0.00077859,-0.00121525,0.00185145,-0.00236635
 ,-0.00575750,0.00199281,0.00015722,-0.00598606,0.00235719,0.00006182,0
 .00000061,0.00002124,0.00000435,0.00000837,-0.00000891,0.00000405,0.00
 000711,-0.00003313,0.00004113,-0.00003421,0.00003461,-0.00000654,0.000
 02958,-0.00001938,-0.00131429,0.00134296,0.00087188,-0.00127764,-0.002
 25189,0.00098394,0.00008047,-0.00011223,0.00011919,0.00006872,-0.00005
 058,0.00010149,0.00017976,-0.00012032,-0.00000851,0.00026258,-0.000338
 40,-0.00040196,0.00002978,0.00003472,-0.00001904,-0.00000136,-0.000009
 04,0.00000658,-0.00001742,0.00000649,0.00000665,0.00001104,-0.00000033
 ,0.00000379,-0.09322065,-0.06716869,0.00399534,0.02096563,0.00897084,0
 .00092931,0.10369853,0.08664108,0.00005058,-0.00003694,0.00008331,0.00
 000410,0.00000636,0.00002569,-0.00000487,0.00000049,0.00000172,-0.0000
 0040,0.00000600,0.00001143,-0.00000779,0.00001457,0.00001054,-0.000026
 58,0.00002860,-0.00002094,0.00255411,-0.00072497,0.00190525,-0.0267581
 8,-0.00451099,0.00728236,-0.00090478,-0.00048006,0.00023909,0.00000656
 ,-0.00000574,0.00000218,-0.00000405,0.00000555,0.00000026,-0.00000051,
 0.00000296,0.00000097,-0.00000386,0.00000526,0.00000462,0.00000402,-0.
 00000499,-0.00000423,0.00041443,0.00046884,-0.00005845,-0.00069979,-0.
 00590616,-0.00507538,-0.00000711,0.00002219,-0.00003625,-0.00003999,0.
 00011580,0.00011610,-0.00012828,-0.00016187,0.00001264,0.00013568,0.00
 014343,-0.00011502,0.00002439,-0.00004156,0.00004348,-0.00001208,-0.00
 031797,-0.00074859,-0.00004083,-0.00002202,0.00004375,-0.00003374,-0.0
 0005146,0.00001576,-0.00003130,0.00001808,-0.00004291,-0.00000463,0.00
 000935,-0.00001920,-0.00044354,0.00034307,-0.00001586,0.00037482,-0.00
 005587,0.00024898,-0.00000081,0.00000592,0.00005175,0.00001535,-0.0000
 0298,-0.00000255,-0.00001115,0.00004799,-0.00005467,-0.00000168,-0.000
 00695,0.00000934,0.00001641,0.00000356,-0.00000022,-0.00001536,0.00002
 604,0.00000810,-0.00000441,-0.00000012,0.00000055,-0.00000668,0.000006
 09,0.00000125,-0.00000466,-0.00000127,-0.00000018,-0.00000315,-0.00002
 633,0.00003007,-0.00000647,-0.00001833,0.00003533,0.00001118,-0.000010
 59,0.00000717,-0.00037364,0.00016679,-0.00047103,0.00015347,0.00011459
 ,-0.00011795,0.00029865,-0.00015849,-0.00038253,0.00002314,-0.00000989
 ,0.00001252,0.00000121,0.00001604,-0.00000593,-0.00092860,0.00112797,-
 0.00191247,0.00060384,0.00189780,-0.00161561,-0.00020370,0.00267290,-0
 .00096475,-0.00005084,-0.00003171,-0.00001657,-0.00001306,-0.00003185,
 0.00003318,0.00000287,-0.00001561,0.00003677,-0.00001985,0.00001448,-0
 .00000430,-0.00000443,-0.00001406,0.00003394,0.00113670,0.00043164,-0.
 00250990,0.00217929,0.00245199,-0.00070383,-0.00025090,0.00097866,-0.0
 0164141,-0.00000033,0.00018047,-0.00001190,0.00054268,-0.00005374,0.00
 028849,0.00024387,0.00007660,-0.00045968,0.00019076,0.00003413,0.00006
 046,0.00001849,-0.00003373,0.00002626,-0.00000005,0.00002112,-0.000028
 32,-0.00001437,-0.00000233,-0.00001412,0.00190416,0.00286889,-0.047634
 65,0.00533761,0.00311021,-0.00043809,-0.00557218,-0.00892422,0.0524643
 2,0.00001760,-0.00000397,0.00000844,0.00000707,0.00000248,0.00001313,-
 0.00000150,-0.00000146,-0.00001100,0.00000291,-0.00000371,0.00000042,0
 .00000032,-0.00000265,0.00000208,0.00000717,-0.00000249,-0.00000447,0.
 00085478,-0.00143557,0.00026325,0.00094533,0.00810351,-0.00401770,-0.0
 0025139,-0.00013946,0.00012434,-0.00000843,0.00000281,-0.00000132,-0.0
 0000022,-0.00000048,0.00000162,0.00000109,-0.00000166,-0.00000146,-0.0
 0000022,-0.00000152,-0.00000201,0.00000052,0.00000254,0.00000891,0.000
 09058,0.00012516,-0.00013224,-0.00110606,-0.00073044,-0.00027411,-0.00
 002257,-0.00000310,-0.00002066,-0.00008110,-0.00007803,0.00017340,-0.0
 0004243,-0.00004291,0.00002575,0.00008130,0.00001667,-0.00008108,0.000
 02487,0.00000126,0.00001956,0.00037054,0.00008616,-0.00078705,-0.00002
 095,0.00002145,0.00005561,-0.00001419,-0.00000479,0.00001405,-0.000022
 21,-0.00000941,-0.00002778,-0.00000699,0.00000340,-0.00001004,-0.00068
 445,0.00004784,0.00002603,0.00010514,-0.00012870,0.00025787,0.00003090
 ,-0.00001653,0.00002864,0.00001726,0.00000253,-0.00001275,0.00002612,-
 0.00006204,-0.00005980,-0.00000484,-0.00001057,0.00001457,-0.00001477,
 -0.00000053,-0.00000635,-0.00002290,0.00003189,0.00001614,-0.00000447,
 -0.00000152,0.00000968,-0.00000520,0.00000136,0.00000307,-0.00000804,-
 0.00000461,0.00000149,0.00001605,0.00004954,0.00004786,-0.00000793,0.0
 0000541,0.00002292,-0.00002627,0.00002751,0.00001563,-0.00023181,0.000
 01911,-0.00018655,-0.00003681,-0.00001531,0.00002847,0.00010695,-0.000
 05360,-0.00011449,0.00000561,-0.00000021,-0.00000581,0.00000267,0.0000
 0839,0.00001080,-0.00026677,-0.00024517,0.00004137,-0.00019348,0.00027
 494,0.00002099,0.00032032,0.00028573,0.00007317,-0.00000832,-0.0000586
 5,-0.00000978,0.00000050,-0.00000410,0.00001462,0.00000176,-0.00001280
 ,0.00000733,0.00000167,0.00000587,-0.00000493,-0.00000355,0.00000388,-
 0.00000896,-0.00005134,-0.00030405,0.00011688,0.00036115,0.00014396,-0
 .00004244,-0.00010068,0.00016812,-0.00012549,-0.00003788,0.00003976,-0
 .00004437,0.00015186,0.00010030,-0.00002210,0.00041220,-0.00003797,-0.
 00058158,0.00005940,0.00002142,-0.00000252,0.00000293,-0.00000412,0.00
 000667,-0.00000519,0.00000367,-0.00000956,-0.00000949,-0.00000162,-0.0
 0000052,-0.04939301,-0.02940740,0.02611224,0.00238985,0.01068133,-0.01
 352536,-0.00032855,-0.01694331,0.02039029,0.04660760,0.00003470,-0.000
 00548,0.00002399,0.00000044,-0.00000221,-0.00000421,-0.00000138,-0.000
 00637,0.00000599,0.00000123,0.00000030,0.00000258,-0.00000308,0.000001
 44,0.00000471,-0.00000689,0.00000975,-0.00000890,-0.00099858,-0.001197
 59,-0.00242369,0.00087192,0.00877352,-0.01498248,0.00040412,0.00017359
 ,-0.00024975,0.00000775,0.00000177,0.00000218,0.00000023,0.00000074,-0
 .00000101,0.00000067,0.00000162,0.00000056,-0.00000096,0.00000152,0.00
 000147,0.00000068,0.00000390,0.00000235,-0.00013690,-0.00007619,0.0000
 0615,0.00147535,0.00054744,0.00010641,-0.00000420,-0.00000003,0.000008
 31,0.00000696,0.00004839,-0.00005270,0.00002685,0.00001946,0.00000636,
 -0.00006430,-0.00000351,0.00000130,-0.00000217,0.00001024,-0.00000226,
 -0.00020209,-0.00017598,0.00030711,0.00002547,-0.00001398,-0.00001164,
 0.00002087,0.00001217,0.00000924,0.00000351,-0.00000541,0.00000716,0.0
 0000208,-0.00000163,0.00000083,0.00029780,0.00002308,0.00006148,0.0000
 8295,0.00009290,-0.00012078,-0.00001993,0.00000745,-0.00001160,-0.0000
 0432,0.00000392,0.00000467,-0.00005924,-0.00010075,-0.00000751,0.00000
 591,0.00000329,-0.00000339,0.00001360,0.00000070,0.00000512,0.00001305
 ,-0.00001778,-0.00001030,0.00000103,0.00000021,-0.00000225,0.00000247,
 -0.00000176,-0.00000085,0.00000001,-0.00000210,-0.00000136,0.00006880,
 0.00010428,0.00004983,0.00002552,0.00002204,-0.00001817,0.00000901,0.0
 0001630,0.00000841,-0.00034274,-0.00002301,-0.00021811,-0.00001842,-0.
 00000975,0.00020091,0.00010593,0.00000175,-0.00001627,0.00001255,0.000
 00797,0.00000015,-0.00003565,-0.00000273,0.00001380,0.00002967,-0.0002
 1499,0.00000437,0.00044567,-0.00003194,0.00005515,-0.00052764,-0.00019
 090,0.00011521,-0.00001819,0.00005118,-0.00004338,-0.00000175,0.000007
 17,-0.00000100,0.00000074,0.00001613,0.00001312,-0.00000679,0.00000032
 ,-0.00000109,0.00000695,-0.00000495,0.00001559,-0.00001639,0.00015207,
 0.00006550,0.00006878,-0.00002959,-0.00011908,-0.00005115,-0.00020732,
 -0.00006955,0.00002851,-0.00003338,-0.00005301,-0.00004756,0.00005441,
 -0.00004054,0.00054382,-0.00006869,-0.00013294,-0.00013669,-0.00000956
 ,-0.00005392,-0.00001090,0.00004069,-0.00001765,0.00000670,-0.00001083
 ,0.00001491,0.00000026,0.00000773,-0.00000241,-0.02832001,-0.17640582,
 0.15053362,-0.00437723,-0.01208184,0.01625672,0.00127612,-0.00435928,0
 .00421840,0.02948646,0.18507592,0.00003602,0.00001027,0.00002732,-0.00
 000271,-0.00000399,-0.00002720,0.00000290,-0.00001402,0.00000775,0.000
 00380,-0.00000465,0.00000205,0.00000073,0.00000019,0.00000853,-0.00000
 797,0.00000159,-0.00001140,-0.00232661,-0.00251830,-0.00259571,0.00289
 952,0.01908653,-0.02439537,0.00112821,0.00052447,-0.00013100,0.0000110
 2,0.00000133,0.00000318,0.00000228,-0.00000187,-0.00000111,0.00000183,
 0.00000026,0.00000092,0.00000097,-0.00000004,-0.00000072,-0.00000109,0
 .00000685,0.00001892,-0.00033748,-0.00039058,0.00014662,0.00298839,0.0
 0084102,0.00481959,-0.00001371,-0.00001599,0.00002900,0.00005402,-0.00
 007440,0.00002751,0.00004394,0.00006162,0.00001795,-0.00008090,-0.0000
 8733,-0.00000465,-0.00000708,0.00003897,-0.00003136,-0.00018109,0.0001
 9721,-0.00014768,0.00003367,0.00002347,-0.00000231,0.00002933,0.000041
 16,0.00001237,0.00001690,-0.00001755,0.00003648,0.00000221,-0.00000785
 ,0.00001327,0.00001465,-0.00010745,0.00011017,0.00004478,-0.00001283,-
 0.00000026,-0.00003831,0.00003407,-0.00001399,-0.00001140,0.00000415,-
 0.00000813,-0.00006311,-0.00015761,-0.00000745,0.00000745,-0.00002067,
 0.00002101,0.00001803,-0.00000535,0.00000651,0.00001569,-0.00001919,-0
 .00000536,0.00000324,0.00000042,0.00000683,0.00000502,-0.00000463,0.00
 000108,0.00000203,-0.00000020,0.00000148,0.00007022,0.00013665,0.00004
 106,0.00003010,0.00003734,-0.00003167,-0.00000437,0.00003358,0.0000088
 4,-0.00056537,-0.00003822,-0.00017199,0.00017759,0.00000778,-0.0000126
 2,0.00006011,0.00006437,0.00003211,0.00000447,0.00002594,-0.00001507,-
 0.00003495,-0.00003619,0.00001881,0.00022408,0.00026412,-0.00023713,0.
 00031808,-0.00017603,0.00004190,-0.00052247,-0.00024608,-0.00002675,0.
 00001313,0.00002042,-0.00001271,0.00000489,0.00000592,-0.00000328,0.00
 000845,0.00001337,0.00000374,0.00000739,-0.00000904,0.00001113,0.00000
 669,0.00000319,0.00000167,-0.00007139,0.00008382,-0.00013583,0.0001002
 6,0.00010076,0.00005918,-0.00018447,-0.00035588,0.00083899,-0.00008462
 ,-0.00007635,-0.00004263,-0.00026402,0.00003160,-0.00029157,0.00102605
 ,-0.00036365,-0.00067674,-0.00027866,-0.00003514,-0.00010424,-0.000017
 02,0.00007073,-0.00003998,0.00001774,-0.00002689,0.00003166,0.00000159
 ,0.00000628,0.00000010,0.02524215,0.14496385,-0.19911650,-0.00095396,-
 0.00545847,0.00538560,-0.00078386,-0.00300499,0.00197988,-0.02784303,-
 0.15345189,0.21452917\\-0.00002167,0.00003413,-0.00002651,0.00001538,0
 .00001379,-0.00001150,0.00000293,0.00001532,0.00000335,-0.00000783,0.0
 0001361,-0.00003223,0.00000914,0.00000671,-0.00000468,0.00000788,0.000
 01278,-0.00001214,0.00001293,0.00001916,-0.00000828,-0.00014846,0.0000
 3946,0.00011502,-0.00003475,-0.00003335,-0.00000017,-0.00000116,0.0000
 0710,-0.00001197,0.00000285,0.00000791,-0.00001492,0.00000672,0.000014
 11,-0.00001744,0.00000178,0.00001536,-0.00001348,0.00000267,0.00001478
 ,-0.00000919,0.00006040,0.00003494,-0.00000084,-0.00001198,-0.00004316
 ,-0.00009412,-0.00005079,0.00002001,0.00005264,-0.00002381,-0.00013757
 ,-0.00008709,-0.00002487,0.00000279,-0.00000780,-0.00002342,-0.0000286
 6,0.00000388,0.00000793,0.00031536,-0.00020179,-0.00005986,-0.00001733
 ,-0.00015700,-0.00001726,-0.00000823,-0.00004481,0.00000473,0.00000178
 ,-0.00003520,0.00011114,-0.00032262,0.00006185,-0.00005773,0.00001978,
 0.00008456,0.00003928,-0.00004897,0.00009578,0.00003294,0.00005324,0.0
 0010445,-0.00001485,-0.00002732,0.00000754,0.00004050,-0.00005215,0.00
 002991,-0.00000976,-0.00003382,-0.00000343,0.00000718,0.00003030,0.000
 01660,-0.00001567,0.00002685,0.00004200,0.00000668,-0.00001955,-0.0000
 0246,-0.00010140,0.00005238,-0.00012817,-0.00002204,0.00001162,0.00003
 157,0.00001336,0.00000306,0.00006559,0.00001352,0.00003893,0.00000738,
 0.00003107,-0.00000813,-0.00003432,0.00000177,-0.00002075,-0.00001054,
 -0.00004303,-0.00005681,0.00007385,0.00001645,0.00004562,-0.00005369,0
 .00000524,-0.00000020,0.00005444,0.00002180,0.00001695,-0.00003513,0.0
 0001109,0.00003702,0.00000438,-0.00000224,-0.00001304,0.00002640,-0.00
 002490,-0.00004016,0.00000164,0.00000133,-0.00000822,-0.00001697,-0.00
 000745,-0.00000410,0.00001772,-0.00001115,-0.00001777,0.00002659,-0.00
 000936,0.00000583,-0.00000298,-0.00000635,0.00000245,-0.00000268,0.000
 00056,0.00000392,-0.00003738,0.00008220,0.00008111,0.00008194,-0.00002
 513,-0.00005366,-0.00004649,-0.00004226,-0.00005646,0.00000032,0.00000
 171,-0.00001230,0.00005902,0.00018941,-0.00002385,0.00016892,0.0000770
 5,-0.00006306,-0.00004775,-0.00006794,0.00010786,0.00000129,-0.0000052
 0,0.00001357,-0.00000811,0.00001397,-0.00000077,-0.00001311,-0.0000168
 4,-0.00003116,-0.00003432,0.00013712,-0.00000504,-0.00004368,-0.000049
 80,0.00004531,0.00004252,-0.00000870,-0.00000372,0.00002559,-0.0000230
 5,0.00000705,0.00000568\\\@


 ...THE PHYSICISTS HAVE MADE THEIR UNIVERSE, AND IF YOU DO NOT LIKE
 IT, YOU MUST MAKE YOUR OWN.
                               -- E. R. HARRISON IN "COSMOLOGY" (1980)
 Job cpu time:       4 days 14 hours 27 minutes 57.4 seconds.
 Elapsed time:       0 days  4 hours 47 minutes  0.3 seconds.
 File lengths (MBytes):  RWF=  12740 Int=      0 D2E=      0 Chk=     88 Scr=      8
 Normal termination of Gaussian 16 at Mon Mar  3 18:28:54 2025.
