 Entering Gaussian System, Link 0=/sysapps/ubuntu-applications/gaussian-new/avx/g16//g16
 Input=preplx.in
 Output=preplx.log
 Initial command:
 /sysapps/ubuntu-applications/gaussian-new/avx/g16/l1.exe "/data/temp-scratch/sgozem/298352/Gau-1323308.inp" -scrdir="/data/temp-scratch/sgozem/298352/"
 Entering Link 1 = /sysapps/ubuntu-applications/gaussian-new/avx/g16/l1.exe PID=   1323310.
  
 Copyright (c) 1988,1990,1992,1993,1995,1998,2003,2009,2016,
            Gaussian, Inc.  All Rights Reserved.
  
 This is part of the Gaussian(R) 16 program.  It is based on
 the Gaussian(R) 09 system (copyright 2009, Gaussian, Inc.),
 the Gaussian(R) 03 system (copyright 2003, Gaussian, Inc.),
 the Gaussian(R) 98 system (copyright 1998, Gaussian, Inc.),
 the Gaussian(R) 94 system (copyright 1995, Gaussian, Inc.),
 the Gaussian 92(TM) system (copyright 1992, Gaussian, Inc.),
 the Gaussian 90(TM) system (copyright 1990, Gaussian, Inc.),
 the Gaussian 88(TM) system (copyright 1988, Gaussian, Inc.),
 the Gaussian 86(TM) system (copyright 1986, Carnegie Mellon
 University), and the Gaussian 82(TM) system (copyright 1983,
 Carnegie Mellon University). Gaussian is a federally registered
 trademark of Gaussian, Inc.
  
 This software contains proprietary and confidential information,
 including trade secrets, belonging to Gaussian, Inc.
  
 This software is provided under written license and may be
 used, copied, transmitted, or stored only in accord with that
 written license.
  
 The following legend is applicable only to US Government
 contracts under FAR:
  
                    RESTRICTED RIGHTS LEGEND
  
 Use, reproduction and disclosure by the US Government is
 subject to restrictions as set forth in subparagraphs (a)
 and (c) of the Commercial Computer Software - Restricted
 Rights clause in FAR 52.227-19.
  
 Gaussian, Inc.
 340 Quinnipiac St., Bldg. 40, Wallingford CT 06492
  
  
 ---------------------------------------------------------------
 Warning -- This program may not be used in any manner that
 competes with the business of Gaussian, Inc. or will provide
 assistance to any competitor of Gaussian, Inc.  The licensee
 of this program is prohibited from giving any competitor of
 Gaussian, Inc. access to this program.  By using this program,
 the user acknowledges that Gaussian, Inc. is engaged in the
 business of creating and licensing software in the field of
 computational chemistry and represents and warrants to the
 licensee that it is not a competitor of Gaussian, Inc. and that
 it will not use this program in any manner prohibited above.
 ---------------------------------------------------------------
  

 Cite this work as:
 Gaussian 16, Revision A.03,
 M. J. Frisch, G. W. Trucks, H. B. Schlegel, G. E. Scuseria, 
 M. A. Robb, J. R. Cheeseman, G. Scalmani, V. Barone, 
 G. A. Petersson, H. Nakatsuji, X. Li, M. Caricato, A. V. Marenich, 
 J. Bloino, B. G. Janesko, R. Gomperts, B. Mennucci, H. P. Hratchian, 
 J. V. Ortiz, A. F. Izmaylov, J. L. Sonnenberg, D. Williams-Young, 
 F. Ding, F. Lipparini, F. Egidi, J. Goings, B. Peng, A. Petrone, 
 T. Henderson, D. Ranasinghe, V. G. Zakrzewski, J. Gao, N. Rega, 
 G. Zheng, W. Liang, M. Hada, M. Ehara, K. Toyota, R. Fukuda, 
 J. Hasegawa, M. Ishida, T. Nakajima, Y. Honda, O. Kitao, H. Nakai, 
 T. Vreven, K. Throssell, J. A. Montgomery, Jr., J. E. Peralta, 
 F. Ogliaro, M. J. Bearpark, J. J. Heyd, E. N. Brothers, K. N. Kudin, 
 V. N. Staroverov, T. A. Keith, R. Kobayashi, J. Normand, 
 K. Raghavachari, A. P. Rendell, J. C. Burant, S. S. Iyengar, 
 J. Tomasi, M. Cossi, J. M. Millam, M. Klene, C. Adamo, R. Cammi, 
 J. W. Ochterski, R. L. Martin, K. Morokuma, O. Farkas, 
 J. B. Foresman, and D. J. Fox, Gaussian, Inc., Wallingford CT, 2016.
 
 ******************************************
 Gaussian 16:  ES64L-G16RevA.03 25-Dec-2016
                28-Apr-2025 
 ******************************************
 %chk=preplx.chk
 %mem=616Gb
 %nprocshared=24
 Will use up to   24 processors via shared memory.
 ----------------------------------------------------------------------
 #P UMN15/genecp scf=(maxcyc=500) opt=tight freq scrf=(smd,solvent=DiCh
 loroEthane)
 ----------------------------------------------------------------------
 1/7=10,18=20,19=15,26=3,38=1/1,3;
 2/9=110,12=2,17=6,18=5,40=1/2;
 3/5=7,11=2,16=1,17=8,25=1,30=1,70=32201,71=1,72=10,74=-73,116=2/1,2,3;
 4//1;
 5/5=2,7=500,38=5,53=10/2;
 6/7=2,8=2,9=2,10=2,28=1/1;
 7//1,2,3,16;
 1/7=10,18=20,19=15,26=3/3(2);
 2/9=110/2;
 99//99;
 2/9=110/2;
 3/5=7,6=1,11=2,16=1,17=8,25=1,30=1,70=32205,71=1,72=10,74=-73,82=7,116=2/1,2,3;
 4/5=5,16=3,69=1/1;
 5/5=2,7=500,38=5,53=10/2;
 7//1,2,3,16;
 1/7=10,18=20,19=15,26=3/3(-5);
 2/9=110/2;
 6/7=2,8=2,9=2,10=2,19=2,28=1/1;
 99/9=1/99;
 Leave Link    1 at Mon Apr 28 09:43:59 2025, MaxMem= 82678120448 cpu:               3.9 elap:               0.2
 (Enter /sysapps/ubuntu-applications/gaussian-new/avx/g16/l101.exe)
 ---
 Opt
 ---
 Symbolic Z-matrix:
 Charge =  0 Multiplicity = 1
 C                    -5.6752   -1.29291  -0.34899 
 C                    -6.83019  -1.24378   0.45876 
 C                    -8.05074  -1.64832  -0.06897 
 C                    -8.11822  -2.08912  -1.39538 
 C                    -6.97331  -2.12788  -2.20605 
 C                    -5.74837  -1.73098  -1.69099 
 C                    -2.06764  -0.60557  -0.33581 
 C                    -1.55065   0.08343   0.79252 
 C                    -1.2769   -0.89412  -1.49254 
 H                    -6.75172  -0.88106   1.48635 
 H                    -8.9521   -1.61779   0.54531 
 H                    -9.07921  -2.40291  -1.80931 
 H                    -7.0486   -2.46623  -3.24087 
 H                    -4.84272  -1.73806  -2.30248 
 O                    -0.06966  -0.57298  -1.61031 
 O                    -0.33266   0.30483   0.97656 
 O                    -2.44081   0.52278   1.66673 
 O                    -1.90369  -1.50413  -2.46881 
 C                    -1.94881   1.28736   2.77421 
 C                    -1.19797  -1.68822  -3.69714 
 H                    -2.83123   1.68729   3.28407 
 H                    -1.30311   2.10156   2.41501 
 H                    -1.37217   0.64497   3.45257 
 H                    -1.88144  -2.22397  -4.36344 
 H                    -0.28604  -2.27807  -3.53374 
 H                    -0.93545  -0.71379  -4.13128 
 O                     2.97677   0.0658   -1.81157 
 O                     2.60164   1.09593   1.2916 
 O                     0.34081  -2.47283   0.39619 
 S                     1.178    -2.81971   1.57887 
 S                     3.60935  -1.28675  -1.90323 
 S                     2.14758   2.37141   0.65399 
 O                     2.0399   -1.62141   1.83052 
 O                     1.8093   -4.11392   1.61183 
 O                     2.80738  -2.14905  -0.98348 
 O                     3.93876  -1.79723  -3.20601 
 O                     1.36726   1.97745  -0.54938 
 O                     1.58297   3.375     1.52692 
 C                     3.69173   3.12856  -0.00727 
 C                     5.18347  -1.05067  -0.98244 
 C                     0.00091  -2.83216   2.99689 
 F                     3.35926   4.06248  -0.88185 
 F                     4.43885   2.21491  -0.59508 
 F                     4.36355   3.67472   0.98883 
 F                     4.87998  -0.62792   0.23754 
 F                     5.92581  -0.14762  -1.59131 
 F                     5.83715  -2.19202  -0.90618 
 F                    -0.80507  -1.78227   2.93854 
 F                     0.68078  -2.79834   4.1267 
 F                    -0.72063  -3.93594   2.94456 
 C                    -4.43666  -0.8612    0.21886 
 H                    -4.38217  -0.45971   1.23659 
 C                    -4.07688   2.28678  -0.66977 
 C                    -5.30892   2.20044   0.01161 
 C                    -3.86379   1.63743  -1.89989 
 C                    -0.91946   4.09481  -0.13562 
 C                    -2.55173   4.60613   1.50817 
 C                    -1.27152   4.82561   0.9912 
 H                     0.06136   4.17959  -0.60077 
 H                    -2.906     5.12153   2.40388 
 H                    -0.58518   5.52575   1.46619 
 N                    -6.33934   2.08066   0.5463 
 N                    -3.68281   1.07808  -2.90951 
 N                    -3.07389   3.10591  -0.12326 
 N                    -3.42687   3.77318   0.96732 
 C                    -1.84116   3.2115   -0.67749 
 H                    -1.63741   2.59003  -1.55132 
 Lu                    1.49445  -0.40563  -0.07188 
 O                    -3.3825   -0.95625  -0.48482 
 
 Add virtual bond connecting atoms H59        and O37        Dist= 4.84D+00.
 ITRead=  0  0  0  0  0  0  0  0  0  0  0  0  0  0  0  0  0  0  0  0
 ITRead=  0  0  0  0  0  0  0  0  0  0  0  0  0  0  0  0  0  0  0  0
 ITRead=  0  0  0  0  0  0  0  0  0  0  0  0  0  0  0  0  0  0  0  0
 ITRead=  0  0  0  0  0  0  0  0  0
 MicOpt= -1 -1 -1 -1 -1 -1 -1 -1 -1 -1 -1 -1 -1 -1 -1 -1 -1 -1 -1 -1
 MicOpt= -1 -1 -1 -1 -1 -1 -1 -1 -1 -1 -1 -1 -1 -1 -1 -1 -1 -1 -1 -1
 MicOpt= -1 -1 -1 -1 -1 -1 -1 -1 -1 -1 -1 -1 -1 -1 -1 -1 -1 -1 -1 -1
 MicOpt= -1 -1 -1 -1 -1 -1 -1 -1 -1
 NAtoms=     69 NQM=       69 NQMF=       0 NMMI=      0 NMMIF=      0
                NMic=       0 NMicF=      0.
                    Isotopes and Nuclear Properties:
 (Nuclear quadrupole moments (NQMom) in fm**2, nuclear magnetic moments (NMagM)
  in nuclear magnetons)

  Atom         1           2           3           4           5           6           7           8           9          10
 IAtWgt=          12          12          12          12          12          12          12          12          12           1
 AtmWgt=  12.0000000  12.0000000  12.0000000  12.0000000  12.0000000  12.0000000  12.0000000  12.0000000  12.0000000   1.0078250
 NucSpn=           0           0           0           0           0           0           0           0           0           1
 AtZEff=  -0.0000000  -0.0000000  -0.0000000  -0.0000000  -0.0000000  -0.0000000  -0.0000000  -0.0000000  -0.0000000  -0.0000000
 NQMom=    0.0000000   0.0000000   0.0000000   0.0000000   0.0000000   0.0000000   0.0000000   0.0000000   0.0000000   0.0000000
 NMagM=    0.0000000   0.0000000   0.0000000   0.0000000   0.0000000   0.0000000   0.0000000   0.0000000   0.0000000   2.7928460
 AtZNuc=   6.0000000   6.0000000   6.0000000   6.0000000   6.0000000   6.0000000   6.0000000   6.0000000   6.0000000   1.0000000

  Atom        11          12          13          14          15          16          17          18          19          20
 IAtWgt=           1           1           1           1          16          16          16          16          12          12
 AtmWgt=   1.0078250   1.0078250   1.0078250   1.0078250  15.9949146  15.9949146  15.9949146  15.9949146  12.0000000  12.0000000
 NucSpn=           1           1           1           1           0           0           0           0           0           0
 AtZEff=  -0.0000000  -0.0000000  -0.0000000  -0.0000000  -0.0000000  -0.0000000  -0.0000000  -0.0000000  -0.0000000  -0.0000000
 NQMom=    0.0000000   0.0000000   0.0000000   0.0000000   0.0000000   0.0000000   0.0000000   0.0000000   0.0000000   0.0000000
 NMagM=    2.7928460   2.7928460   2.7928460   2.7928460   0.0000000   0.0000000   0.0000000   0.0000000   0.0000000   0.0000000
 AtZNuc=   1.0000000   1.0000000   1.0000000   1.0000000   8.0000000   8.0000000   8.0000000   8.0000000   6.0000000   6.0000000

  Atom        21          22          23          24          25          26          27          28          29          30
 IAtWgt=           1           1           1           1           1           1          16          16          16          32
 AtmWgt=   1.0078250   1.0078250   1.0078250   1.0078250   1.0078250   1.0078250  15.9949146  15.9949146  15.9949146  31.9720718
 NucSpn=           1           1           1           1           1           1           0           0           0           0
 AtZEff=  -0.0000000  -0.0000000  -0.0000000  -0.0000000  -0.0000000  -0.0000000  -0.0000000  -0.0000000  -0.0000000  -0.0000000
 NQMom=    0.0000000   0.0000000   0.0000000   0.0000000   0.0000000   0.0000000   0.0000000   0.0000000   0.0000000   0.0000000
 NMagM=    2.7928460   2.7928460   2.7928460   2.7928460   2.7928460   2.7928460   0.0000000   0.0000000   0.0000000   0.0000000
 AtZNuc=   1.0000000   1.0000000   1.0000000   1.0000000   1.0000000   1.0000000   8.0000000   8.0000000   8.0000000  16.0000000

  Atom        31          32          33          34          35          36          37          38          39          40
 IAtWgt=          32          32          16          16          16          16          16          16          12          12
 AtmWgt=  31.9720718  31.9720718  15.9949146  15.9949146  15.9949146  15.9949146  15.9949146  15.9949146  12.0000000  12.0000000
 NucSpn=           0           0           0           0           0           0           0           0           0           0
 AtZEff=  -0.0000000  -0.0000000  -0.0000000  -0.0000000  -0.0000000  -0.0000000  -0.0000000  -0.0000000  -0.0000000  -0.0000000
 NQMom=    0.0000000   0.0000000   0.0000000   0.0000000   0.0000000   0.0000000   0.0000000   0.0000000   0.0000000   0.0000000
 NMagM=    0.0000000   0.0000000   0.0000000   0.0000000   0.0000000   0.0000000   0.0000000   0.0000000   0.0000000   0.0000000
 AtZNuc=  16.0000000  16.0000000   8.0000000   8.0000000   8.0000000   8.0000000   8.0000000   8.0000000   6.0000000   6.0000000

  Atom        41          42          43          44          45          46          47          48          49          50
 IAtWgt=          12          19          19          19          19          19          19          19          19          19
 AtmWgt=  12.0000000  18.9984032  18.9984032  18.9984032  18.9984032  18.9984032  18.9984032  18.9984032  18.9984032  18.9984032
 NucSpn=           0           1           1           1           1           1           1           1           1           1
 AtZEff=  -0.0000000  -0.0000000  -0.0000000  -0.0000000  -0.0000000  -0.0000000  -0.0000000  -0.0000000  -0.0000000  -0.0000000
 NQMom=    0.0000000   0.0000000   0.0000000   0.0000000   0.0000000   0.0000000   0.0000000   0.0000000   0.0000000   0.0000000
 NMagM=    0.0000000   2.6288670   2.6288670   2.6288670   2.6288670   2.6288670   2.6288670   2.6288670   2.6288670   2.6288670
 AtZNuc=   6.0000000   9.0000000   9.0000000   9.0000000   9.0000000   9.0000000   9.0000000   9.0000000   9.0000000   9.0000000

  Atom        51          52          53          54          55          56          57          58          59          60
 IAtWgt=          12           1          12          12          12          12          12          12           1           1
 AtmWgt=  12.0000000   1.0078250  12.0000000  12.0000000  12.0000000  12.0000000  12.0000000  12.0000000   1.0078250   1.0078250
 NucSpn=           0           1           0           0           0           0           0           0           1           1
 AtZEff=  -0.0000000  -0.0000000  -0.0000000  -0.0000000  -0.0000000  -0.0000000  -0.0000000  -0.0000000  -0.0000000  -0.0000000
 NQMom=    0.0000000   0.0000000   0.0000000   0.0000000   0.0000000   0.0000000   0.0000000   0.0000000   0.0000000   0.0000000
 NMagM=    0.0000000   2.7928460   0.0000000   0.0000000   0.0000000   0.0000000   0.0000000   0.0000000   2.7928460   2.7928460
 AtZNuc=   6.0000000   1.0000000   6.0000000   6.0000000   6.0000000   6.0000000   6.0000000   6.0000000   1.0000000   1.0000000

  Atom        61          62          63          64          65          66          67          68          69
 IAtWgt=           1          14          14          14          14          12           1         175          16
 AtmWgt=   1.0078250  14.0030740  14.0030740  14.0030740  14.0030740  12.0000000   1.0078250 174.9409000  15.9949146
 NucSpn=           1           2           2           2           2           0           1           7           0
 AtZEff=  -0.0000000  -0.0000000  -0.0000000  -0.0000000  -0.0000000  -0.0000000  -0.0000000  -0.0000000  -0.0000000
 NQMom=    0.0000000   2.0440000   2.0440000   2.0440000   2.0440000   0.0000000   0.0000000 349.0000000   0.0000000
 NMagM=    2.7928460   0.4037610   0.4037610   0.4037610   0.4037610   0.0000000   2.7928460   2.2327000   0.0000000
 AtZNuc=   1.0000000   7.0000000   7.0000000   7.0000000   7.0000000   6.0000000   1.0000000  71.0000000   8.0000000
 Leave Link  101 at Mon Apr 28 09:44:01 2025, MaxMem= 82678120448 cpu:              36.6 elap:               1.6
 (Enter /sysapps/ubuntu-applications/gaussian-new/avx/g16/l103.exe)

 GradGradGradGradGradGradGradGradGradGradGradGradGradGradGradGradGradGrad
 Berny optimization.
 Initialization pass.
                           ----------------------------
                           !    Initial Parameters    !
                           ! (Angstroms and Degrees)  !
 --------------------------                            --------------------------
 ! Name  Definition              Value          Derivative Info.                !
 --------------------------------------------------------------------------------
 ! R1    R(1,2)                  1.4103         estimate D2E/DX2                !
 ! R2    R(1,6)                  1.4136         estimate D2E/DX2                !
 ! R3    R(1,51)                 1.4293         estimate D2E/DX2                !
 ! R4    R(2,3)                  1.3899         estimate D2E/DX2                !
 ! R5    R(2,10)                 1.0926         estimate D2E/DX2                !
 ! R6    R(3,4)                  1.3994         estimate D2E/DX2                !
 ! R7    R(3,11)                 1.0912         estimate D2E/DX2                !
 ! R8    R(4,5)                  1.4034         estimate D2E/DX2                !
 ! R9    R(4,12)                 1.0924         estimate D2E/DX2                !
 ! R10   R(5,6)                  1.3868         estimate D2E/DX2                !
 ! R11   R(5,13)                 1.0913         estimate D2E/DX2                !
 ! R12   R(6,14)                 1.0928         estimate D2E/DX2                !
 ! R13   R(7,8)                  1.4195         estimate D2E/DX2                !
 ! R14   R(7,9)                  1.4306         estimate D2E/DX2                !
 ! R15   R(7,69)                 1.369          estimate D2E/DX2                !
 ! R16   R(8,16)                 1.2516         estimate D2E/DX2                !
 ! R17   R(8,17)                 1.3227         estimate D2E/DX2                !
 ! R18   R(9,15)                 1.2548         estimate D2E/DX2                !
 ! R19   R(9,18)                 1.3108         estimate D2E/DX2                !
 ! R20   R(15,68)                2.2003         estimate D2E/DX2                !
 ! R21   R(16,68)                2.2231         estimate D2E/DX2                !
 ! R22   R(17,19)                1.4329         estimate D2E/DX2                !
 ! R23   R(18,20)                1.4285         estimate D2E/DX2                !
 ! R24   R(19,21)                1.0948         estimate D2E/DX2                !
 ! R25   R(19,22)                1.0995         estimate D2E/DX2                !
 ! R26   R(19,23)                1.0979         estimate D2E/DX2                !
 ! R27   R(20,24)                1.0946         estimate D2E/DX2                !
 ! R28   R(20,25)                1.0983         estimate D2E/DX2                !
 ! R29   R(20,26)                1.0986         estimate D2E/DX2                !
 ! R30   R(27,31)                1.496          estimate D2E/DX2                !
 ! R31   R(27,68)                2.3337         estimate D2E/DX2                !
 ! R32   R(28,32)                1.4965         estimate D2E/DX2                !
 ! R33   R(28,68)                2.3108         estimate D2E/DX2                !
 ! R34   R(29,30)                1.4899         estimate D2E/DX2                !
 ! R35   R(29,68)                2.4131         estimate D2E/DX2                !
 ! R36   R(30,33)                1.4974         estimate D2E/DX2                !
 ! R37   R(30,34)                1.4403         estimate D2E/DX2                !
 ! R38   R(30,41)                1.843          estimate D2E/DX2                !
 ! R39   R(30,68)                2.9416         estimate D2E/DX2                !
 ! R40   R(31,35)                1.4942         estimate D2E/DX2                !
 ! R41   R(31,36)                1.4375         estimate D2E/DX2                !
 ! R42   R(31,40)                1.8389         estimate D2E/DX2                !
 ! R43   R(31,68)                2.9331         estimate D2E/DX2                !
 ! R44   R(32,37)                1.4873         estimate D2E/DX2                !
 ! R45   R(32,38)                1.445          estimate D2E/DX2                !
 ! R46   R(32,39)                1.8425         estimate D2E/DX2                !
 ! R47   R(32,68)                2.9437         estimate D2E/DX2                !
 ! R48   R(33,68)                2.3227         estimate D2E/DX2                !
 ! R49   R(35,68)                2.3652         estimate D2E/DX2                !
 ! R50   R(37,59)                2.5607         estimate D2E/DX2                !
 ! R51   R(37,68)                2.4338         estimate D2E/DX2                !
 ! R52   R(39,42)                1.322          estimate D2E/DX2                !
 ! R53   R(39,43)                1.3185         estimate D2E/DX2                !
 ! R54   R(39,44)                1.3198         estimate D2E/DX2                !
 ! R55   R(40,45)                1.3263         estimate D2E/DX2                !
 ! R56   R(40,46)                1.3181         estimate D2E/DX2                !
 ! R57   R(40,47)                1.3175         estimate D2E/DX2                !
 ! R58   R(41,48)                1.3249         estimate D2E/DX2                !
 ! R59   R(41,49)                1.319          estimate D2E/DX2                !
 ! R60   R(41,50)                1.3197         estimate D2E/DX2                !
 ! R61   R(51,52)                1.0954         estimate D2E/DX2                !
 ! R62   R(51,69)                1.271          estimate D2E/DX2                !
 ! R63   R(53,54)                1.4106         estimate D2E/DX2                !
 ! R64   R(53,55)                1.4072         estimate D2E/DX2                !
 ! R65   R(53,64)                1.4056         estimate D2E/DX2                !
 ! R66   R(54,62)                1.1671         estimate D2E/DX2                !
 ! R67   R(55,63)                1.1683         estimate D2E/DX2                !
 ! R68   R(56,58)                1.3884         estimate D2E/DX2                !
 ! R69   R(56,59)                1.0888         estimate D2E/DX2                !
 ! R70   R(56,66)                1.3869         estimate D2E/DX2                !
 ! R71   R(57,58)                1.398          estimate D2E/DX2                !
 ! R72   R(57,60)                1.0924         estimate D2E/DX2                !
 ! R73   R(57,65)                1.3237         estimate D2E/DX2                !
 ! R74   R(58,61)                1.0894         estimate D2E/DX2                !
 ! R75   R(64,65)                1.3264         estimate D2E/DX2                !
 ! R76   R(64,66)                1.3557         estimate D2E/DX2                !
 ! R77   R(66,67)                1.0915         estimate D2E/DX2                !
 ! A1    A(2,1,6)              120.8082         estimate D2E/DX2                !
 ! A2    A(2,1,51)             118.1386         estimate D2E/DX2                !
 ! A3    A(6,1,51)             121.0403         estimate D2E/DX2                !
 ! A4    A(1,2,3)              119.4443         estimate D2E/DX2                !
 ! A5    A(1,2,10)             119.4364         estimate D2E/DX2                !
 ! A6    A(3,2,10)             121.1176         estimate D2E/DX2                !
 ! A7    A(2,3,4)              119.5976         estimate D2E/DX2                !
 ! A8    A(2,3,11)             120.2313         estimate D2E/DX2                !
 ! A9    A(4,3,11)             120.1704         estimate D2E/DX2                !
 ! A10   A(3,4,5)              121.1247         estimate D2E/DX2                !
 ! A11   A(3,4,12)             119.4766         estimate D2E/DX2                !
 ! A12   A(5,4,12)             119.3977         estimate D2E/DX2                !
 ! A13   A(4,5,6)              119.8772         estimate D2E/DX2                !
 ! A14   A(4,5,13)             120.0018         estimate D2E/DX2                !
 ! A15   A(6,5,13)             120.1206         estimate D2E/DX2                !
 ! A16   A(1,6,5)              119.143          estimate D2E/DX2                !
 ! A17   A(1,6,14)             119.3633         estimate D2E/DX2                !
 ! A18   A(5,6,14)             121.4895         estimate D2E/DX2                !
 ! A19   A(8,7,9)              122.6352         estimate D2E/DX2                !
 ! A20   A(8,7,69)             124.1008         estimate D2E/DX2                !
 ! A21   A(9,7,69)             113.0306         estimate D2E/DX2                !
 ! A22   A(7,8,16)             123.8602         estimate D2E/DX2                !
 ! A23   A(7,8,17)             116.1964         estimate D2E/DX2                !
 ! A24   A(16,8,17)            119.9319         estimate D2E/DX2                !
 ! A25   A(7,9,15)             123.7852         estimate D2E/DX2                !
 ! A26   A(7,9,18)             115.5812         estimate D2E/DX2                !
 ! A27   A(15,9,18)            120.6158         estimate D2E/DX2                !
 ! A28   A(9,15,68)            129.6268         estimate D2E/DX2                !
 ! A29   A(8,16,68)            132.3719         estimate D2E/DX2                !
 ! A30   A(8,17,19)            117.1922         estimate D2E/DX2                !
 ! A31   A(9,18,20)            117.6563         estimate D2E/DX2                !
 ! A32   A(17,19,21)           106.148          estimate D2E/DX2                !
 ! A33   A(17,19,22)           110.1386         estimate D2E/DX2                !
 ! A34   A(17,19,23)           110.2239         estimate D2E/DX2                !
 ! A35   A(21,19,22)           110.7921         estimate D2E/DX2                !
 ! A36   A(21,19,23)           110.4463         estimate D2E/DX2                !
 ! A37   A(22,19,23)           109.0686         estimate D2E/DX2                !
 ! A38   A(18,20,24)           106.1417         estimate D2E/DX2                !
 ! A39   A(18,20,25)           110.5772         estimate D2E/DX2                !
 ! A40   A(18,20,26)           110.0929         estimate D2E/DX2                !
 ! A41   A(24,20,25)           110.2523         estimate D2E/DX2                !
 ! A42   A(24,20,26)           110.0476         estimate D2E/DX2                !
 ! A43   A(25,20,26)           109.6786         estimate D2E/DX2                !
 ! A44   A(29,30,33)           105.6948         estimate D2E/DX2                !
 ! A45   A(29,30,34)           118.2703         estimate D2E/DX2                !
 ! A46   A(29,30,41)           104.6818         estimate D2E/DX2                !
 ! A47   A(33,30,34)           117.5768         estimate D2E/DX2                !
 ! A48   A(33,30,41)           104.1068         estimate D2E/DX2                !
 ! A49   A(34,30,41)           104.8489         estimate D2E/DX2                !
 ! A50   A(34,30,68)           134.6758         estimate D2E/DX2                !
 ! A51   A(41,30,68)           120.4002         estimate D2E/DX2                !
 ! A52   A(27,31,35)           104.8982         estimate D2E/DX2                !
 ! A53   A(27,31,36)           118.262          estimate D2E/DX2                !
 ! A54   A(27,31,40)           102.4282         estimate D2E/DX2                !
 ! A55   A(35,31,36)           118.419          estimate D2E/DX2                !
 ! A56   A(35,31,40)           103.0212         estimate D2E/DX2                !
 ! A57   A(36,31,40)           107.6525         estimate D2E/DX2                !
 ! A58   A(36,31,68)           146.907          estimate D2E/DX2                !
 ! A59   A(40,31,68)           105.4277         estimate D2E/DX2                !
 ! A60   A(28,32,37)           106.1496         estimate D2E/DX2                !
 ! A61   A(28,32,38)           116.9433         estimate D2E/DX2                !
 ! A62   A(28,32,39)           104.4104         estimate D2E/DX2                !
 ! A63   A(37,32,38)           117.8874         estimate D2E/DX2                !
 ! A64   A(37,32,39)           104.961          estimate D2E/DX2                !
 ! A65   A(38,32,39)           105.0026         estimate D2E/DX2                !
 ! A66   A(38,32,68)           135.8467         estimate D2E/DX2                !
 ! A67   A(39,32,68)           119.0196         estimate D2E/DX2                !
 ! A68   A(32,37,59)            93.2106         estimate D2E/DX2                !
 ! A69   A(59,37,68)           150.7664         estimate D2E/DX2                !
 ! A70   A(32,39,42)           108.4795         estimate D2E/DX2                !
 ! A71   A(32,39,43)           110.4951         estimate D2E/DX2                !
 ! A72   A(32,39,44)           109.0135         estimate D2E/DX2                !
 ! A73   A(42,39,43)           109.7003         estimate D2E/DX2                !
 ! A74   A(42,39,44)           109.5714         estimate D2E/DX2                !
 ! A75   A(43,39,44)           109.5595         estimate D2E/DX2                !
 ! A76   A(31,40,45)           107.7959         estimate D2E/DX2                !
 ! A77   A(31,40,46)           109.802          estimate D2E/DX2                !
 ! A78   A(31,40,47)           110.0285         estimate D2E/DX2                !
 ! A79   A(45,40,46)           109.597          estimate D2E/DX2                !
 ! A80   A(45,40,47)           109.6579         estimate D2E/DX2                !
 ! A81   A(46,40,47)           109.9273         estimate D2E/DX2                !
 ! A82   A(30,41,48)           110.445          estimate D2E/DX2                !
 ! A83   A(30,41,49)           109.2492         estimate D2E/DX2                !
 ! A84   A(30,41,50)           108.925          estimate D2E/DX2                !
 ! A85   A(48,41,49)           109.3279         estimate D2E/DX2                !
 ! A86   A(48,41,50)           109.1735         estimate D2E/DX2                !
 ! A87   A(49,41,50)           109.7069         estimate D2E/DX2                !
 ! A88   A(1,51,52)            121.5298         estimate D2E/DX2                !
 ! A89   A(1,51,69)            118.4348         estimate D2E/DX2                !
 ! A90   A(52,51,69)           120.035          estimate D2E/DX2                !
 ! A91   A(54,53,55)           121.7547         estimate D2E/DX2                !
 ! A92   A(54,53,64)           118.1075         estimate D2E/DX2                !
 ! A93   A(55,53,64)           120.0493         estimate D2E/DX2                !
 ! A94   A(58,56,59)           122.2853         estimate D2E/DX2                !
 ! A95   A(58,56,66)           118.935          estimate D2E/DX2                !
 ! A96   A(59,56,66)           118.7731         estimate D2E/DX2                !
 ! A97   A(58,57,60)           121.7418         estimate D2E/DX2                !
 ! A98   A(58,57,65)           123.5824         estimate D2E/DX2                !
 ! A99   A(60,57,65)           114.6757         estimate D2E/DX2                !
 ! A100  A(56,58,57)           116.7234         estimate D2E/DX2                !
 ! A101  A(56,58,61)           122.1649         estimate D2E/DX2                !
 ! A102  A(57,58,61)           121.1042         estimate D2E/DX2                !
 ! A103  A(37,59,56)           112.5722         estimate D2E/DX2                !
 ! A104  A(53,64,65)           115.0229         estimate D2E/DX2                !
 ! A105  A(53,64,66)           122.3634         estimate D2E/DX2                !
 ! A106  A(65,64,66)           122.6121         estimate D2E/DX2                !
 ! A107  A(57,65,64)           118.4623         estimate D2E/DX2                !
 ! A108  A(56,66,64)           119.6157         estimate D2E/DX2                !
 ! A109  A(56,66,67)           123.4628         estimate D2E/DX2                !
 ! A110  A(64,66,67)           116.9163         estimate D2E/DX2                !
 ! A111  A(15,68,16)            76.6922         estimate D2E/DX2                !
 ! A112  A(15,68,27)            86.8854         estimate D2E/DX2                !
 ! A113  A(15,68,28)           143.3792         estimate D2E/DX2                !
 ! A114  A(15,68,29)            74.3729         estimate D2E/DX2                !
 ! A115  A(15,68,30)           104.6835         estimate D2E/DX2                !
 ! A116  A(15,68,31)            93.0472         estimate D2E/DX2                !
 ! A117  A(15,68,32)           113.6961         estimate D2E/DX2                !
 ! A118  A(15,68,33)           134.4119         estimate D2E/DX2                !
 ! A119  A(15,68,35)            93.9595         estimate D2E/DX2                !
 ! A120  A(15,68,37)            84.2691         estimate D2E/DX2                !
 ! A121  A(16,68,27)           144.003          estimate D2E/DX2                !
 ! A122  A(16,68,28)            84.7128         estimate D2E/DX2                !
 ! A123  A(16,68,29)            77.8415         estimate D2E/DX2                !
 ! A124  A(16,68,30)            84.7902         estimate D2E/DX2                !
 ! A125  A(16,68,32)            76.3834         estimate D2E/DX2                !
 ! A126  A(16,68,33)            88.5107         estimate D2E/DX2                !
 ! A127  A(16,68,35)           150.8724         estimate D2E/DX2                !
 ! A128  A(16,68,37)            74.7314         estimate D2E/DX2                !
 ! A129  A(27,68,28)            90.2438         estimate D2E/DX2                !
 ! A130  A(27,68,29)           128.4118         estimate D2E/DX2                !
 ! A131  A(27,68,30)           130.7275         estimate D2E/DX2                !
 ! A132  A(27,68,32)            81.5071         estimate D2E/DX2                !
 ! A133  A(27,68,33)           124.5526         estimate D2E/DX2                !
 ! A134  A(27,68,35)            60.5936         estimate D2E/DX2                !
 ! A135  A(27,68,37)            71.8884         estimate D2E/DX2                !
 ! A136  A(28,68,29)           132.1647         estimate D2E/DX2                !
 ! A137  A(28,68,30)           104.6967         estimate D2E/DX2                !
 ! A138  A(28,68,31)           102.5997         estimate D2E/DX2                !
 ! A139  A(28,68,33)            75.1865         estimate D2E/DX2                !
 ! A140  A(28,68,35)           116.1311         estimate D2E/DX2                !
 ! A141  A(28,68,37)            60.2995         estimate D2E/DX2                !
 ! A142  A(29,68,31)           102.033          estimate D2E/DX2                !
 ! A143  A(29,68,32)           150.0406         estimate D2E/DX2                !
 ! A144  A(29,68,33)            60.3298         estimate D2E/DX2                !
 ! A145  A(29,68,35)            73.0639         estimate D2E/DX2                !
 ! A146  A(29,68,37)           148.4154         estimate D2E/DX2                !
 ! A147  A(30,68,31)           100.4525         estimate D2E/DX2                !
 ! A148  A(30,68,32)           131.2772         estimate D2E/DX2                !
 ! A149  A(30,68,35)            70.7968         estimate D2E/DX2                !
 ! A150  A(30,68,37)           155.2385         estimate D2E/DX2                !
 ! A151  A(31,68,32)           106.1037         estimate D2E/DX2                !
 ! A152  A(31,68,33)           100.651          estimate D2E/DX2                !
 ! A153  A(31,68,37)           102.0832         estimate D2E/DX2                !
 ! A154  A(32,68,33)           103.8711         estimate D2E/DX2                !
 ! A155  A(32,68,35)           131.8551         estimate D2E/DX2                !
 ! A156  A(33,68,35)            78.4332         estimate D2E/DX2                !
 ! A157  A(33,68,37)           133.2758         estimate D2E/DX2                !
 ! A158  A(35,68,37)           132.4654         estimate D2E/DX2                !
 ! A159  A(7,69,51)            135.8236         estimate D2E/DX2                !
 ! A160  L(53,54,62,1,-1)      177.4296         estimate D2E/DX2                !
 ! A161  L(53,55,63,1,-1)      179.0891         estimate D2E/DX2                !
 ! A162  L(16,68,31,15,-1)     169.7393         estimate D2E/DX2                !
 ! A163  L(53,54,62,1,-2)      181.1753         estimate D2E/DX2                !
 ! A164  L(53,55,63,1,-2)      180.7241         estimate D2E/DX2                !
 ! A165  L(16,68,31,15,-2)     177.4764         estimate D2E/DX2                !
 ! D1    D(6,1,2,3)              0.8471         estimate D2E/DX2                !
 ! D2    D(6,1,2,10)          -178.6831         estimate D2E/DX2                !
 ! D3    D(51,1,2,3)           179.5533         estimate D2E/DX2                !
 ! D4    D(51,1,2,10)            0.0231         estimate D2E/DX2                !
 ! D5    D(2,1,6,5)             -0.6504         estimate D2E/DX2                !
 ! D6    D(2,1,6,14)           178.6141         estimate D2E/DX2                !
 ! D7    D(51,1,6,5)          -179.3188         estimate D2E/DX2                !
 ! D8    D(51,1,6,14)           -0.0544         estimate D2E/DX2                !
 ! D9    D(2,1,51,52)           -2.6978         estimate D2E/DX2                !
 ! D10   D(2,1,51,69)          177.059          estimate D2E/DX2                !
 ! D11   D(6,1,51,52)          176.0052         estimate D2E/DX2                !
 ! D12   D(6,1,51,69)           -4.2379         estimate D2E/DX2                !
 ! D13   D(1,2,3,4)             -0.4513         estimate D2E/DX2                !
 ! D14   D(1,2,3,11)           179.8586         estimate D2E/DX2                !
 ! D15   D(10,2,3,4)           179.0709         estimate D2E/DX2                !
 ! D16   D(10,2,3,11)           -0.6192         estimate D2E/DX2                !
 ! D17   D(2,3,4,5)             -0.1299         estimate D2E/DX2                !
 ! D18   D(2,3,4,12)          -179.7624         estimate D2E/DX2                !
 ! D19   D(11,3,4,5)           179.5603         estimate D2E/DX2                !
 ! D20   D(11,3,4,12)           -0.0722         estimate D2E/DX2                !
 ! D21   D(3,4,5,6)              0.3271         estimate D2E/DX2                !
 ! D22   D(3,4,5,13)          -179.4355         estimate D2E/DX2                !
 ! D23   D(12,4,5,6)           179.9599         estimate D2E/DX2                !
 ! D24   D(12,4,5,13)            0.1973         estimate D2E/DX2                !
 ! D25   D(4,5,6,1)              0.0637         estimate D2E/DX2                !
 ! D26   D(4,5,6,14)          -179.1845         estimate D2E/DX2                !
 ! D27   D(13,5,6,1)           179.826          estimate D2E/DX2                !
 ! D28   D(13,5,6,14)            0.5778         estimate D2E/DX2                !
 ! D29   D(9,7,8,16)           -12.081          estimate D2E/DX2                !
 ! D30   D(9,7,8,17)           166.6789         estimate D2E/DX2                !
 ! D31   D(69,7,8,16)          173.861          estimate D2E/DX2                !
 ! D32   D(69,7,8,17)           -7.3791         estimate D2E/DX2                !
 ! D33   D(8,7,9,15)             0.2837         estimate D2E/DX2                !
 ! D34   D(8,7,9,18)          -178.1872         estimate D2E/DX2                !
 ! D35   D(69,7,9,15)          174.9391         estimate D2E/DX2                !
 ! D36   D(69,7,9,18)           -3.5318         estimate D2E/DX2                !
 ! D37   D(8,7,69,51)           -2.7087         estimate D2E/DX2                !
 ! D38   D(9,7,69,51)         -177.2731         estimate D2E/DX2                !
 ! D39   D(7,8,16,68)           -8.8707         estimate D2E/DX2                !
 ! D40   D(17,8,16,68)         172.4133         estimate D2E/DX2                !
 ! D41   D(7,8,17,19)         -176.5227         estimate D2E/DX2                !
 ! D42   D(16,8,17,19)           2.2891         estimate D2E/DX2                !
 ! D43   D(7,9,15,68)           32.0749         estimate D2E/DX2                !
 ! D44   D(18,9,15,68)        -149.5277         estimate D2E/DX2                !
 ! D45   D(7,9,18,20)          173.5639         estimate D2E/DX2                !
 ! D46   D(15,9,18,20)          -4.9593         estimate D2E/DX2                !
 ! D47   D(9,15,68,16)         -35.9972         estimate D2E/DX2                !
 ! D48   D(9,15,68,27)         176.2802         estimate D2E/DX2                !
 ! D49   D(9,15,68,28)         -97.5081         estimate D2E/DX2                !
 ! D50   D(9,15,68,29)          44.8787         estimate D2E/DX2                !
 ! D51   D(9,15,68,30)          44.8865         estimate D2E/DX2                !
 ! D52   D(9,15,68,31)         146.5264         estimate D2E/DX2                !
 ! D53   D(9,15,68,32)        -104.4045         estimate D2E/DX2                !
 ! D54   D(9,15,68,33)          38.3912         estimate D2E/DX2                !
 ! D55   D(9,15,68,35)         116.0602         estimate D2E/DX2                !
 ! D56   D(9,15,68,37)        -111.6243         estimate D2E/DX2                !
 ! D57   D(8,16,68,15)          24.7421         estimate D2E/DX2                !
 ! D58   D(8,16,68,27)          89.8701         estimate D2E/DX2                !
 ! D59   D(8,16,68,28)         172.9713         estimate D2E/DX2                !
 ! D60   D(8,16,68,29)         -51.8314         estimate D2E/DX2                !
 ! D61   D(8,16,68,30)         -81.7045         estimate D2E/DX2                !
 ! D62   D(8,16,68,32)         143.5723         estimate D2E/DX2                !
 ! D63   D(8,16,68,33)        -111.7695         estimate D2E/DX2                !
 ! D64   D(8,16,68,35)         -49.0745         estimate D2E/DX2                !
 ! D65   D(8,16,68,37)         112.3466         estimate D2E/DX2                !
 ! D66   D(8,17,19,21)         171.256          estimate D2E/DX2                !
 ! D67   D(8,17,19,22)          51.269          estimate D2E/DX2                !
 ! D68   D(8,17,19,23)         -69.1244         estimate D2E/DX2                !
 ! D69   D(9,18,20,24)         179.0604         estimate D2E/DX2                !
 ! D70   D(9,18,20,25)          59.4846         estimate D2E/DX2                !
 ! D71   D(9,18,20,26)         -61.8701         estimate D2E/DX2                !
 ! D72   D(29,30,41,48)        -44.2005         estimate D2E/DX2                !
 ! D73   D(29,30,41,49)       -164.4866         estimate D2E/DX2                !
 ! D74   D(29,30,41,50)         75.6908         estimate D2E/DX2                !
 ! D75   D(33,30,41,48)         66.543          estimate D2E/DX2                !
 ! D76   D(33,30,41,49)        -53.7431         estimate D2E/DX2                !
 ! D77   D(33,30,41,50)       -173.5658         estimate D2E/DX2                !
 ! D78   D(34,30,41,48)       -169.37           estimate D2E/DX2                !
 ! D79   D(34,30,41,49)         70.3439         estimate D2E/DX2                !
 ! D80   D(34,30,41,50)        -49.4787         estimate D2E/DX2                !
 ! D81   D(68,30,41,48)         13.3389         estimate D2E/DX2                !
 ! D82   D(68,30,41,49)       -106.9472         estimate D2E/DX2                !
 ! D83   D(68,30,41,50)        133.2302         estimate D2E/DX2                !
 ! D84   D(34,30,68,15)         96.7632         estimate D2E/DX2                !
 ! D85   D(34,30,68,16)        171.525          estimate D2E/DX2                !
 ! D86   D(34,30,68,27)         -1.95           estimate D2E/DX2                !
 ! D87   D(34,30,68,28)       -105.3426         estimate D2E/DX2                !
 ! D88   D(34,30,68,31)          0.7809         estimate D2E/DX2                !
 ! D89   D(34,30,68,32)       -121.7159         estimate D2E/DX2                !
 ! D90   D(34,30,68,35)          7.6616         estimate D2E/DX2                !
 ! D91   D(34,30,68,37)       -154.4744         estimate D2E/DX2                !
 ! D92   D(41,30,68,15)        -86.9202         estimate D2E/DX2                !
 ! D93   D(41,30,68,16)        -12.1584         estimate D2E/DX2                !
 ! D94   D(41,30,68,27)        174.3666         estimate D2E/DX2                !
 ! D95   D(41,30,68,28)         70.974          estimate D2E/DX2                !
 ! D96   D(41,30,68,31)        177.0975         estimate D2E/DX2                !
 ! D97   D(41,30,68,32)         54.6007         estimate D2E/DX2                !
 ! D98   D(41,30,68,35)       -176.0218         estimate D2E/DX2                !
 ! D99   D(41,30,68,37)         21.8422         estimate D2E/DX2                !
 ! D100  D(27,31,40,45)         56.9534         estimate D2E/DX2                !
 ! D101  D(27,31,40,46)        -62.3853         estimate D2E/DX2                !
 ! D102  D(27,31,40,47)        176.4955         estimate D2E/DX2                !
 ! D103  D(35,31,40,45)        -51.7812         estimate D2E/DX2                !
 ! D104  D(35,31,40,46)       -171.1198         estimate D2E/DX2                !
 ! D105  D(35,31,40,47)         67.7609         estimate D2E/DX2                !
 ! D106  D(36,31,40,45)       -177.6694         estimate D2E/DX2                !
 ! D107  D(36,31,40,46)         62.9919         estimate D2E/DX2                !
 ! D108  D(36,31,40,47)        -58.1273         estimate D2E/DX2                !
 ! D109  D(68,31,40,45)          3.2682         estimate D2E/DX2                !
 ! D110  D(68,31,40,46)       -116.0704         estimate D2E/DX2                !
 ! D111  D(68,31,40,47)        122.8103         estimate D2E/DX2                !
 ! D112  D(36,31,68,15)         -5.9127         estimate D2E/DX2                !
 ! D113  D(36,31,68,28)       -152.5774         estimate D2E/DX2                !
 ! D114  D(36,31,68,29)         68.7519         estimate D2E/DX2                !
 ! D115  D(36,31,68,30)         99.6292         estimate D2E/DX2                !
 ! D116  D(36,31,68,32)       -121.6509         estimate D2E/DX2                !
 ! D117  D(36,31,68,33)        130.3983         estimate D2E/DX2                !
 ! D118  D(36,31,68,37)        -90.6992         estimate D2E/DX2                !
 ! D119  D(40,31,68,15)        172.4508         estimate D2E/DX2                !
 ! D120  D(40,31,68,28)         25.786          estimate D2E/DX2                !
 ! D121  D(40,31,68,29)       -112.8846         estimate D2E/DX2                !
 ! D122  D(40,31,68,30)        -82.0073         estimate D2E/DX2                !
 ! D123  D(40,31,68,32)         56.7125         estimate D2E/DX2                !
 ! D124  D(40,31,68,33)        -51.2382         estimate D2E/DX2                !
 ! D125  D(40,31,68,37)         87.6643         estimate D2E/DX2                !
 ! D126  D(28,32,37,59)        156.6734         estimate D2E/DX2                !
 ! D127  D(38,32,37,59)         23.2847         estimate D2E/DX2                !
 ! D128  D(39,32,37,59)        -93.1107         estimate D2E/DX2                !
 ! D129  D(28,32,39,42)        163.6401         estimate D2E/DX2                !
 ! D130  D(28,32,39,43)         43.351          estimate D2E/DX2                !
 ! D131  D(28,32,39,44)        -77.1024         estimate D2E/DX2                !
 ! D132  D(37,32,39,42)         52.1758         estimate D2E/DX2                !
 ! D133  D(37,32,39,43)        -68.1133         estimate D2E/DX2                !
 ! D134  D(37,32,39,44)        171.4334         estimate D2E/DX2                !
 ! D135  D(38,32,39,42)        -72.7732         estimate D2E/DX2                !
 ! D136  D(38,32,39,43)        166.9377         estimate D2E/DX2                !
 ! D137  D(38,32,39,44)         46.4844         estimate D2E/DX2                !
 ! D138  D(68,32,39,42)        110.7448         estimate D2E/DX2                !
 ! D139  D(68,32,39,43)         -9.5443         estimate D2E/DX2                !
 ! D140  D(68,32,39,44)       -129.9976         estimate D2E/DX2                !
 ! D141  D(38,32,68,15)         81.8084         estimate D2E/DX2                !
 ! D142  D(38,32,68,16)         13.2134         estimate D2E/DX2                !
 ! D143  D(38,32,68,27)        164.597          estimate D2E/DX2                !
 ! D144  D(38,32,68,29)        -18.1159         estimate D2E/DX2                !
 ! D145  D(38,32,68,30)        -57.0952         estimate D2E/DX2                !
 ! D146  D(38,32,68,31)       -177.4061         estimate D2E/DX2                !
 ! D147  D(38,32,68,33)        -71.7748         estimate D2E/DX2                !
 ! D148  D(38,32,68,35)       -158.5605         estimate D2E/DX2                !
 ! D149  D(39,32,68,15)       -103.0727         estimate D2E/DX2                !
 ! D150  D(39,32,68,16)       -171.6677         estimate D2E/DX2                !
 ! D151  D(39,32,68,27)        -20.2841         estimate D2E/DX2                !
 ! D152  D(39,32,68,29)        157.003          estimate D2E/DX2                !
 ! D153  D(39,32,68,30)        118.0237         estimate D2E/DX2                !
 ! D154  D(39,32,68,31)         -2.2872         estimate D2E/DX2                !
 ! D155  D(39,32,68,33)        103.3441         estimate D2E/DX2                !
 ! D156  D(39,32,68,35)         16.5584         estimate D2E/DX2                !
 ! D157  D(32,37,59,56)        -97.8605         estimate D2E/DX2                !
 ! D158  D(68,37,59,56)          6.6377         estimate D2E/DX2                !
 ! D159  D(59,37,68,15)         62.5497         estimate D2E/DX2                !
 ! D160  D(59,37,68,16)        -15.1868         estimate D2E/DX2                !
 ! D161  D(59,37,68,27)        151.1384         estimate D2E/DX2                !
 ! D162  D(59,37,68,28)       -107.8086         estimate D2E/DX2                !
 ! D163  D(59,37,68,29)         15.4031         estimate D2E/DX2                !
 ! D164  D(59,37,68,30)        -50.4455         estimate D2E/DX2                !
 ! D165  D(59,37,68,31)        154.4495         estimate D2E/DX2                !
 ! D166  D(59,37,68,33)        -88.0875         estimate D2E/DX2                !
 ! D167  D(59,37,68,35)        152.6772         estimate D2E/DX2                !
 ! D168  D(1,51,69,7)          176.1727         estimate D2E/DX2                !
 ! D169  D(52,51,69,7)          -4.0666         estimate D2E/DX2                !
 ! D170  D(54,53,64,65)         -3.077          estimate D2E/DX2                !
 ! D171  D(54,53,64,66)        177.3782         estimate D2E/DX2                !
 ! D172  D(55,53,64,65)        173.5614         estimate D2E/DX2                !
 ! D173  D(55,53,64,66)         -5.9834         estimate D2E/DX2                !
 ! D174  D(59,56,58,57)       -178.7384         estimate D2E/DX2                !
 ! D175  D(59,56,58,61)          0.273          estimate D2E/DX2                !
 ! D176  D(66,56,58,57)          0.3149         estimate D2E/DX2                !
 ! D177  D(66,56,58,61)        179.3263         estimate D2E/DX2                !
 ! D178  D(58,56,59,37)        117.5152         estimate D2E/DX2                !
 ! D179  D(66,56,59,37)        -61.5395         estimate D2E/DX2                !
 ! D180  D(58,56,66,64)          1.8266         estimate D2E/DX2                !
 ! D181  D(58,56,66,67)       -179.0372         estimate D2E/DX2                !
 ! D182  D(59,56,66,64)       -179.0865         estimate D2E/DX2                !
 ! D183  D(59,56,66,67)          0.0497         estimate D2E/DX2                !
 ! D184  D(60,57,58,56)        178.717          estimate D2E/DX2                !
 ! D185  D(60,57,58,61)         -0.3056         estimate D2E/DX2                !
 ! D186  D(65,57,58,56)         -1.3458         estimate D2E/DX2                !
 ! D187  D(65,57,58,61)        179.6316         estimate D2E/DX2                !
 ! D188  D(58,57,65,64)          0.1388         estimate D2E/DX2                !
 ! D189  D(60,57,65,64)       -179.9199         estimate D2E/DX2                !
 ! D190  D(53,64,65,57)       -177.3528         estimate D2E/DX2                !
 ! D191  D(66,64,65,57)          2.1908         estimate D2E/DX2                !
 ! D192  D(53,64,66,56)        176.3157         estimate D2E/DX2                !
 ! D193  D(53,64,66,67)         -2.8761         estimate D2E/DX2                !
 ! D194  D(65,64,66,56)         -3.1946         estimate D2E/DX2                !
 ! D195  D(65,64,66,67)        177.6136         estimate D2E/DX2                !
 --------------------------------------------------------------------------------
 Trust Radius=3.00D-01 FncErr=1.00D-07 GrdErr=1.00D-06 EigMax=2.50D+02 EigMin=1.00D-04
 Number of steps in this run=    414 maximum allowed number of steps=    414.
 GradGradGradGradGradGradGradGradGradGradGradGradGradGradGradGradGradGrad

 Leave Link  103 at Mon Apr 28 09:44:01 2025, MaxMem= 82678120448 cpu:               0.8 elap:               0.1
 (Enter /sysapps/ubuntu-applications/gaussian-new/avx/g16/l202.exe)
 Stoichiometry    C22H16F9LuN4O14S3
 Framework group  C1[X(C22H16F9LuN4O14S3)]
 Deg. of freedom   201
 Full point group                 C1      NOp   1
 Largest Abelian subgroup         C1      NOp   1
 Largest concise Abelian subgroup C1      NOp   1
                         Standard orientation:                         
 ---------------------------------------------------------------------
 Center     Atomic      Atomic             Coordinates (Angstroms)
 Number     Number       Type             X           Y           Z
 ---------------------------------------------------------------------
      1          6           0       -5.675200   -1.292913   -0.348994
      2          6           0       -6.830185   -1.243778    0.458757
      3          6           0       -8.050743   -1.648324   -0.068966
      4          6           0       -8.118218   -2.089115   -1.395378
      5          6           0       -6.973310   -2.127884   -2.206049
      6          6           0       -5.748365   -1.730976   -1.690993
      7          6           0       -2.067638   -0.605574   -0.335810
      8          6           0       -1.550651    0.083432    0.792515
      9          6           0       -1.276899   -0.894116   -1.492541
     10          1           0       -6.751719   -0.881060    1.486353
     11          1           0       -8.952097   -1.617788    0.545305
     12          1           0       -9.079215   -2.402913   -1.809306
     13          1           0       -7.048596   -2.466228   -3.240872
     14          1           0       -4.842718   -1.738060   -2.302476
     15          8           0       -0.069657   -0.572983   -1.610314
     16          8           0       -0.332656    0.304828    0.976560
     17          8           0       -2.440811    0.522782    1.666730
     18          8           0       -1.903693   -1.504128   -2.468813
     19          6           0       -1.948809    1.287359    2.774205
     20          6           0       -1.197972   -1.688218   -3.697143
     21          1           0       -2.831229    1.687289    3.284069
     22          1           0       -1.303110    2.101564    2.415012
     23          1           0       -1.372168    0.644968    3.452565
     24          1           0       -1.881444   -2.223974   -4.363441
     25          1           0       -0.286043   -2.278071   -3.533737
     26          1           0       -0.935447   -0.713787   -4.131281
     27          8           0        2.976773    0.065803   -1.811569
     28          8           0        2.601636    1.095926    1.291601
     29          8           0        0.340812   -2.472830    0.396190
     30         16           0        1.177995   -2.819714    1.578871
     31         16           0        3.609347   -1.286746   -1.903228
     32         16           0        2.147577    2.371410    0.653985
     33          8           0        2.039896   -1.621413    1.830519
     34          8           0        1.809300   -4.113921    1.611826
     35          8           0        2.807375   -2.149052   -0.983480
     36          8           0        3.938756   -1.797227   -3.206009
     37          8           0        1.367256    1.977454   -0.549380
     38          8           0        1.582967    3.375002    1.526924
     39          6           0        3.691730    3.128558   -0.007270
     40          6           0        5.183467   -1.050666   -0.982439
     41          6           0        0.000910   -2.832155    2.996893
     42          9           0        3.359264    4.062484   -0.881854
     43          9           0        4.438854    2.214912   -0.595080
     44          9           0        4.363554    3.674718    0.988831
     45          9           0        4.879976   -0.627924    0.237540
     46          9           0        5.925812   -0.147624   -1.591305
     47          9           0        5.837152   -2.192017   -0.906178
     48          9           0       -0.805065   -1.782268    2.938538
     49          9           0        0.680775   -2.798342    4.126699
     50          9           0       -0.720631   -3.935937    2.944559
     51          6           0       -4.436657   -0.861201    0.218862
     52          1           0       -4.382165   -0.459711    1.236585
     53          6           0       -4.076878    2.286783   -0.669765
     54          6           0       -5.308917    2.200441    0.011614
     55          6           0       -3.863787    1.637427   -1.899888
     56          6           0       -0.919457    4.094805   -0.135618
     57          6           0       -2.551727    4.606125    1.508168
     58          6           0       -1.271522    4.825613    0.991203
     59          1           0        0.061359    4.179585   -0.600765
     60          1           0       -2.905995    5.121531    2.403876
     61          1           0       -0.585180    5.525746    1.466188
     62          7           0       -6.339339    2.080659    0.546300
     63          7           0       -3.682807    1.078075   -2.909514
     64          7           0       -3.073888    3.105907   -0.123258
     65          7           0       -3.426868    3.773182    0.967322
     66          6           0       -1.841159    3.211497   -0.677494
     67          1           0       -1.637411    2.590026   -1.551322
     68         71           0        1.494450   -0.405630   -0.071880
     69          8           0       -3.382504   -0.956250   -0.484817
 ---------------------------------------------------------------------
 Rotational constants (GHZ):           0.0707358           0.0362360           0.0311676
 Leave Link  202 at Mon Apr 28 09:44:01 2025, MaxMem= 82678120448 cpu:               0.3 elap:               0.0
 (Enter /sysapps/ubuntu-applications/gaussian-new/avx/g16/l301.exe)
 General basis read from cards:  (5D, 7F)
 Centers:      10     11     12     13     14     21     22     23     24     25
 Centers:      26     52     59     60     61     67
 S 3 1.00
     Exponent=  1.3010701000D+01 Coefficients=  1.9682158000D-02
     Exponent=  1.9622572000D+00 Coefficients=  1.3796524000D-01
     Exponent=  4.4453796000D-01 Coefficients=  4.7831935000D-01
 S 1 1.00
     Exponent=  1.2194962000D-01 Coefficients=  1.0000000000D+00
 P 1 1.00
     Exponent=  8.0000000000D-01 Coefficients=  1.0000000000D+00
 ****
 Centers:       1      2      3      4      5      6      7      8      9     19
 Centers:      20     39     40     41     51     53     54     55     56     57
 Centers:      58     66
 S 5 1.00
     Exponent=  1.2384016938D+03 Coefficients=  5.4568832082D-03
     Exponent=  1.8629004992D+02 Coefficients=  4.0638409211D-02
     Exponent=  4.2251176346D+01 Coefficients=  1.8025593888D-01
     Exponent=  1.1676557932D+01 Coefficients=  4.6315121755D-01
     Exponent=  3.5930506482D+00 Coefficients=  4.4087173314D-01
 S 1 1.00
     Exponent=  4.0245147363D-01 Coefficients=  1.0000000000D+00
 S 1 1.00
     Exponent=  1.3090182668D-01 Coefficients=  1.0000000000D+00
 P 3 1.00
     Exponent=  9.4680970621D+00 Coefficients=  3.8387871728D-02
     Exponent=  2.0103545142D+00 Coefficients=  2.1117025112D-01
     Exponent=  5.4771004707D-01 Coefficients=  5.1328172114D-01
 P 1 1.00
     Exponent=  1.5268613795D-01 Coefficients=  1.0000000000D+00
 D 1 1.00
     Exponent=  8.0000000000D-01 Coefficients=  1.0000000000D+00
 ****
 Centers:      62     63     64     65
 S 5 1.00
     Exponent=  1.7128415853D+03 Coefficients= -5.3934125305D-03
     Exponent=  2.5764812677D+02 Coefficients= -4.0221581118D-02
     Exponent=  5.8458245853D+01 Coefficients= -1.7931144990D-01
     Exponent=  1.6198367905D+01 Coefficients= -4.6376317823D-01
     Exponent=  5.0052600809D+00 Coefficients= -4.4171422662D-01
 S 1 1.00
     Exponent=  5.8731856571D-01 Coefficients=  1.0000000000D+00
 S 1 1.00
     Exponent=  1.8764592253D-01 Coefficients=  1.0000000000D+00
 P 3 1.00
     Exponent=  1.3571470233D+01 Coefficients= -4.0072398852D-02
     Exponent=  2.9257372874D+00 Coefficients= -2.1807045028D-01
     Exponent=  7.9927750754D-01 Coefficients= -5.1294466049D-01
 P 1 1.00
     Exponent=  2.1954348034D-01 Coefficients=  1.0000000000D+00
 D 1 1.00
     Exponent=  1.0000000000D+00 Coefficients=  1.0000000000D+00
 ****
 Centers:      15     16     17     18     27     28     29     33     34     35
 Centers:      36     37     38     69
 S 5 1.00
     Exponent=  2.2661767785D+03 Coefficients= -5.3431809926D-03
     Exponent=  3.4087010191D+02 Coefficients= -3.9890039230D-02
     Exponent=  7.7363135167D+01 Coefficients= -1.7853911985D-01
     Exponent=  2.1479644940D+01 Coefficients= -4.6427684959D-01
     Exponent=  6.6589433124D+00 Coefficients= -4.4309745172D-01
 S 1 1.00
     Exponent=  8.0975975668D-01 Coefficients=  1.0000000000D+00
 S 1 1.00
     Exponent=  2.5530772234D-01 Coefficients=  1.0000000000D+00
 P 3 1.00
     Exponent=  1.7721504317D+01 Coefficients=  4.3394573193D-02
     Exponent=  3.8635505440D+00 Coefficients=  2.3094120765D-01
     Exponent=  1.0480920883D+00 Coefficients=  5.1375311064D-01
 P 1 1.00
     Exponent=  2.7641544411D-01 Coefficients=  1.0000000000D+00
 D 1 1.00
     Exponent=  1.2000000000D+00 Coefficients=  1.0000000000D+00
 ****
 Centers:      42     43     44     45     46     47     48     49     50
 S 5 1.00
     Exponent=  2.8948325990D+03 Coefficients= -5.3408255515D-03
     Exponent=  4.3541939120D+02 Coefficients= -3.9904258866D-02
     Exponent=  9.8843328866D+01 Coefficients= -1.7912768038D-01
     Exponent=  2.7485198001D+01 Coefficients= -4.6758090825D-01
     Exponent=  8.5405498171D+00 Coefficients= -4.4653131020D-01
 S 1 1.00
     Exponent=  1.0654578038D+00 Coefficients=  1.0000000000D+00
 S 1 1.00
     Exponent=  3.3247346748D-01 Coefficients=  1.0000000000D+00
 P 3 1.00
     Exponent=  2.2696633924D+01 Coefficients= -4.5212874436D-02
     Exponent=  4.9872339257D+00 Coefficients= -2.3754317067D-01
     Exponent=  1.3491613954D+00 Coefficients= -5.1287353587D-01
 P 1 1.00
     Exponent=  3.4829881977D-01 Coefficients=  1.0000000000D+00
 D 1 1.00
     Exponent=  1.4000000000D+00 Coefficients=  1.0000000000D+00
 ****
 Centers:      30     31     32
 S 5 1.00
     Exponent=  9.1849303010D+03 Coefficients= -2.2294387756D-03
     Exponent=  1.3815105503D+03 Coefficients= -1.6683029937D-02
     Exponent=  3.1387147580D+02 Coefficients= -7.5262436116D-02
     Exponent=  8.8053870623D+01 Coefficients= -1.9376827038D-01
     Exponent=  2.7039914905D+01 Coefficients= -1.7718020803D-01
 S 3 1.00
     Exponent=  4.5648731303D+01 Coefficients= -1.0736062573D-01
     Exponent=  4.9664522326D+00 Coefficients=  6.5066293018D-01
     Exponent=  2.0116242047D+00 Coefficients=  5.9712155354D-01
 S 1 1.00
     Exponent=  3.5661077013D-01 Coefficients=  1.0000000000D+00
 S 1 1.00
     Exponent=  1.3507221477D-01 Coefficients=  1.0000000000D+00
 P 5 1.00
     Exponent=  2.6198233439D+02 Coefficients= -9.2729929822D-03
     Exponent=  6.1306894736D+01 Coefficients= -6.6547669241D-02
     Exponent=  1.9103729887D+01 Coefficients= -2.4828595903D-01
     Exponent=  6.6567720378D+00 Coefficients= -4.8703847402D-01
     Exponent=  2.3959635161D+00 Coefficients= -3.9337850312D-01
 P 1 1.00
     Exponent=  6.1776161679D-01 Coefficients=  1.0000000000D+00
 P 1 1.00
     Exponent=  1.6993376871D-01 Coefficients=  1.0000000000D+00
 D 1 1.00
     Exponent=  5.5000000000D-01 Coefficients=  1.0000000000D+00
 ****
 Centers:      68
 S 5 1.00
     Exponent=  9.5169767000D+04 Coefficients=  2.2000000000D-05
     Exponent=  1.5488403000D+04 Coefficients=  1.4500000000D-04
     Exponent=  3.7762335000D+03 Coefficients=  6.5100000000D-04
     Exponent=  1.0790501000D+03 Coefficients=  2.0380000000D-03
     Exponent=  2.6895380000D+02 Coefficients=  5.1270000000D-03
 S 1 1.00
     Exponent=  6.3467900000D+01 Coefficients=  1.0000000000D+00
 S 1 1.00
     Exponent=  4.5133200000D+01 Coefficients=  1.0000000000D+00
 S 1 1.00
     Exponent=  2.1456800000D+01 Coefficients=  1.0000000000D+00
 S 1 1.00
     Exponent=  5.3483000000D+00 Coefficients=  1.0000000000D+00
 S 1 1.00
     Exponent=  2.6778000000D+00 Coefficients=  1.0000000000D+00
 S 1 1.00
     Exponent=  1.0287000000D+00 Coefficients=  1.0000000000D+00
 S 1 1.00
     Exponent=  4.4080000000D-01 Coefficients=  1.0000000000D+00
 S 1 1.00
     Exponent=  7.9100000000D-02 Coefficients=  1.0000000000D+00
 S 1 1.00
     Exponent=  3.1300000000D-02 Coefficients=  1.0000000000D+00
 P 3 1.00
     Exponent=  1.2333733920D+01 Coefficients= -1.5313031066D-01
     Exponent=  1.1080331415D+01 Coefficients= -2.0300664852D-01
     Exponent=  2.0341747228D+00 Coefficients= -1.9458361263D-01
 P 6 1.00
     Exponent=  1.5005317313D+03 Coefficients= -1.0192569555D-03
     Exponent=  3.8239748937D+02 Coefficients= -5.9476212135D-03
     Exponent=  1.3299969628D+02 Coefficients= -1.6265160929D-02
     Exponent=  4.6110032419D+01 Coefficients= -3.5623845839D-02
     Exponent=  1.5583529011D+01 Coefficients=  2.3709171074D-01
     Exponent=  5.7856677022D+00 Coefficients= -3.0670977844D-01
 P 1 1.00
     Exponent=  3.7823361008D+00 Coefficients=  1.0000000000D+00
 P 1 1.00
     Exponent=  1.3682592248D+00 Coefficients=  1.0000000000D+00
 P 1 1.00
     Exponent=  5.7288205601D-01 Coefficients=  1.0000000000D+00
 P 1 1.00
     Exponent=  2.2793165135D-01 Coefficients=  1.0000000000D+00
 P 1 1.00
     Exponent=  8.1403917986D-02 Coefficients=  1.0000000000D+00
 P 1 1.00
     Exponent=  2.9091071778D-02 Coefficients=  1.0000000000D+00
 D 6 1.00
     Exponent=  4.8452750000D+02 Coefficients=  2.2860000000D-03
     Exponent=  1.4666550000D+02 Coefficients=  1.8629000000D-02
     Exponent=  5.6377900000D+01 Coefficients=  7.4088000000D-02
     Exponent=  2.3671100000D+01 Coefficients=  1.6155400000D-01
     Exponent=  9.4401000000D+00 Coefficients=  3.0809100000D-01
     Exponent=  4.3712000000D+00 Coefficients=  4.4833400000D-01
 D 1 1.00
     Exponent=  1.9580000000D+00 Coefficients=  1.0000000000D+00
 D 1 1.00
     Exponent=  7.2720000000D-01 Coefficients=  1.0000000000D+00
 D 1 1.00
     Exponent=  2.4600000000D-01 Coefficients=  1.0000000000D+00
 D 1 1.00
     Exponent=  7.4400000000D-02 Coefficients=  1.0000000000D+00
 F 5 1.00
     Exponent=  1.7515590000D+02 Coefficients=  4.1020000000D-03
     Exponent=  6.2890900000D+01 Coefficients=  3.9086000000D-02
     Exponent=  2.8362400000D+01 Coefficients=  1.4704400000D-01
     Exponent=  1.3247800000D+01 Coefficients=  2.7109200000D-01
     Exponent=  6.1440000000D+00 Coefficients=  3.4566500000D-01
 F 1 1.00
     Exponent=  2.7623000000D+00 Coefficients=  1.0000000000D+00
 F 1 1.00
     Exponent=  1.1574000000D+00 Coefficients=  1.0000000000D+00
 F 1 1.00
     Exponent=  4.2440000000D-01 Coefficients=  1.0000000000D+00
 G 1 1.00
     Exponent=  7.0090000000D-01 Coefficients=  1.0000000000D+00
 ****
 ======================================================================================================
                                       Pseudopotential Parameters
 ======================================================================================================
  Center     Atomic      Valence      Angular      Power
  Number     Number     Electrons     Momentum     of R      Exponent        Coefficient   SO-Coeffient
 ======================================================================================================
    1          6
                                   No pseudopotential on this center.
    2          6
                                   No pseudopotential on this center.
    3          6
                                   No pseudopotential on this center.
    4          6
                                   No pseudopotential on this center.
    5          6
                                   No pseudopotential on this center.
    6          6
                                   No pseudopotential on this center.
    7          6
                                   No pseudopotential on this center.
    8          6
                                   No pseudopotential on this center.
    9          6
                                   No pseudopotential on this center.
   10          1
                                   No pseudopotential on this center.
   11          1
                                   No pseudopotential on this center.
   12          1
                                   No pseudopotential on this center.
   13          1
                                   No pseudopotential on this center.
   14          1
                                   No pseudopotential on this center.
   15          8
                                   No pseudopotential on this center.
   16          8
                                   No pseudopotential on this center.
   17          8
                                   No pseudopotential on this center.
   18          8
                                   No pseudopotential on this center.
   19          6
                                   No pseudopotential on this center.
   20          6
                                   No pseudopotential on this center.
   21          1
                                   No pseudopotential on this center.
   22          1
                                   No pseudopotential on this center.
   23          1
                                   No pseudopotential on this center.
   24          1
                                   No pseudopotential on this center.
   25          1
                                   No pseudopotential on this center.
   26          1
                                   No pseudopotential on this center.
   27          8
                                   No pseudopotential on this center.
   28          8
                                   No pseudopotential on this center.
   29          8
                                   No pseudopotential on this center.
   30         16
                                   No pseudopotential on this center.
   31         16
                                   No pseudopotential on this center.
   32         16
                                   No pseudopotential on this center.
   33          8
                                   No pseudopotential on this center.
   34          8
                                   No pseudopotential on this center.
   35          8
                                   No pseudopotential on this center.
   36          8
                                   No pseudopotential on this center.
   37          8
                                   No pseudopotential on this center.
   38          8
                                   No pseudopotential on this center.
   39          6
                                   No pseudopotential on this center.
   40          6
                                   No pseudopotential on this center.
   41          6
                                   No pseudopotential on this center.
   42          9
                                   No pseudopotential on this center.
   43          9
                                   No pseudopotential on this center.
   44          9
                                   No pseudopotential on this center.
   45          9
                                   No pseudopotential on this center.
   46          9
                                   No pseudopotential on this center.
   47          9
                                   No pseudopotential on this center.
   48          9
                                   No pseudopotential on this center.
   49          9
                                   No pseudopotential on this center.
   50          9
                                   No pseudopotential on this center.
   51          6
                                   No pseudopotential on this center.
   52          1
                                   No pseudopotential on this center.
   53          6
                                   No pseudopotential on this center.
   54          6
                                   No pseudopotential on this center.
   55          6
                                   No pseudopotential on this center.
   56          6
                                   No pseudopotential on this center.
   57          6
                                   No pseudopotential on this center.
   58          6
                                   No pseudopotential on this center.
   59          1
                                   No pseudopotential on this center.
   60          1
                                   No pseudopotential on this center.
   61          1
                                   No pseudopotential on this center.
   62          7
                                   No pseudopotential on this center.
   63          7
                                   No pseudopotential on this center.
   64          7
                                   No pseudopotential on this center.
   65          7
                                   No pseudopotential on this center.
   66          6
                                   No pseudopotential on this center.
   67          1
                                   No pseudopotential on this center.
   68         71           43
                                      H and up 
                                                     2        1.0000000        0.00000000    0.00000000
                                      S - H
                                                     2       35.1620970      989.99558400    0.00000000
                                      P - H
                                                     2       19.4644020      278.86565200    0.00000000
                                      D - H
                                                     2       10.0068650       71.00917800    0.00000000
                                      F - H
                                                     2       23.5179320      -47.40589000    0.00000000
                                      G - H
                                                     2       29.4122380      -35.55714600    0.00000000
   69          8
                                   No pseudopotential on this center.
 ======================================================================================================
 Ernie: Thresh=  0.10000D-02 Tol=  0.10000D-05 Strict=F.
 There are   991 symmetry adapted cartesian basis functions of A   symmetry.
 There are   916 symmetry adapted basis functions of A   symmetry.
   916 basis functions,  1662 primitive gaussians,   991 cartesian basis functions
   230 alpha electrons      230 beta electrons
       nuclear repulsion energy     11653.1591200041 Hartrees.
 IExCor= 7252 DFT=T Ex+Corr=MN15 ExCW=0 ScaHFX=  0.440000
 ScaDFX=  1.000000  1.000000  1.000000  1.000000 ScalE2=  1.000000  1.000000
 IRadAn=      5 IRanWt=     -1 IRanGd=            0 ICorTp=0 IEmpDi=  4
 NAtoms=   69 NActive=   69 NUniq=   69 SFac= 1.00D+00 NAtFMM=   60 NAOKFM=T Big=T
 Integral buffers will be    131072 words long.
 Raffenetti 2 integral format.
 Two-electron integral symmetry is turned on.
 ------------------------------------------------------------------------------
 Polarizable Continuum Model (PCM)
 =================================
 Model                : PCM.
 Atomic radii         : SMD-Coulomb.
 Polarization charges : Total charges.
 Charge compensation  : None.
 Solution method      : On-the-fly selection.
 Cavity type          : VdW (van der Waals Surface) (Alpha=1.000).
 Cavity algorithm     : GePol (No added spheres)
                        Default sphere list used, NSphG=   69.
                        Lebedev-Laikov grids with approx.  5.0 points / Ang**2.
                        Smoothing algorithm: York/Karplus (Gamma=1.0000).
                        Polarization charges: spherical gaussians, with
                                              point-specific exponents (IZeta= 3).
                        Self-potential: point-specific (ISelfS= 7).
                        Self-field    : sphere-specific E.n sum rule (ISelfD= 2).
 1st derivatives      : Analytical E(r).r(x)/FMM algorithm (CHGder, D1EAlg=3).
                        Cavity 1st derivative terms included.
 Solvent              : DiChloroEthane, Eps=  10.125000 Eps(inf)=   2.087447
 ------------------------------------------------------------------------------
 GePol: Number of generator spheres                  =      69
 GePol: Total number of spheres                      =      69
 GePol: Number of exposed spheres                    =      68 ( 98.55%)
 GePol: Number of points                             =    5063
 GePol: Average weight of points                     =       0.13
 GePol: Minimum weight of points                     =   0.66D-11
 GePol: Maximum weight of points                     =    0.21501
 GePol: Number of points with low weight             =     285
 GePol: Fraction of low-weight points (<1% of avg)   =       5.63%
 GePol: Cavity surface area                          =    648.009 Ang**2
 GePol: Cavity volume                                =    781.368 Ang**3
 ------------------------------------------------------------------------------
 Atomic radii for non-electrostatic terms: SMD-CDS.
 ------------------------------------------------------------------------------
 PCM non-electrostatic energy =         0.0050815472 Hartrees.
 Nuclear repulsion after PCM non-electrostatic terms =    11653.1642015513 Hartrees.
 Leave Link  301 at Mon Apr 28 09:44:01 2025, MaxMem= 82678120448 cpu:               6.4 elap:               0.3
 (Enter /sysapps/ubuntu-applications/gaussian-new/avx/g16/l302.exe)
 NPDir=0 NMtPBC=     1 NCelOv=     1 NCel=       1 NClECP=     1 NCelD=      1
         NCelK=      1 NCelE2=     1 NClLst=     1 CellRange=     0.0.
 One-electron integrals computed using PRISM.
 One-electron integral symmetry used in STVInt
   1 Symmetry operations used in ECPInt.
 ECPInt:  NShTT=   77815 NPrTT=  297642 LenC2=   59256 LenP2D=  136580.
 LDataN:  DoStor=T MaxTD1= 9 Len=  602
 NBasis=   916 RedAO= T EigKep=  2.92D-04  NBF=   916
 NBsUse=   916 1.00D-06 EigRej= -1.00D+00 NBFU=   916
 Precomputing XC quadrature grid using
 IXCGrd= 4 IRadAn=           5 IRanWt=          -1 IRanGd=           0 AccXCQ= 0.00D+00.
 Defaulting to unpruned grid for atomic number  71.
[...]
 -0.00031017,-0.00010679,0.00014864,-0.00004795,-0.00075250,-0.00096113
 ,-0.00105387,-0.00100476,0.00540089,0.00518920,-0.00294119,0.00497409,
 -0.00191902,0.02952786,-0.14670154,-0.14984166,-0.02477044,0.14233596,
 -0.00013792,-0.00005531,-0.00005630,0.00006059,-0.00001092,-0.00003391
 ,-0.00001386,-0.00001336,-0.00003610,-0.00000857,-0.00000288,-0.000006
 33,-0.00004077,-0.00000338,0.00001783,0.00001222,0.00001612,0.00005710
 ,0.00003616,-0.00019471,-0.00011701,0.00029501,0.00029557,0.00007533,-
 0.00013944,0.00032636,0.00047248,0.00000229,0.00000404,-0.00000467,-0.
 00000424,-0.00000013,0.00000082,-0.00000221,-0.00000061,-0.00000036,-0
 .00000268,-0.00000282,-0.00000377,0.00000250,0.00001128,0.00000999,0.0
 0007509,-0.00002883,-0.00026021,-0.00008531,-0.00017888,-0.00000780,0.
 00001267,0.00002400,0.00002426,-0.00004762,-0.00009111,-0.00028173,-0.
 00002203,-0.00004522,-0.00009540,-0.00006796,0.00000598,0.00014281,-0.
 00000288,0.00000233,0.00000330,0.00000673,-0.00000712,-0.00003030,0.00
 000965,0.00000390,0.00001053,0.00000321,0.00000026,-0.00001439,0.00001
 198,0.00000486,-0.00001889,0.00001810,-0.00000272,-0.00003162,0.000057
 65,-0.00001808,-0.00006387,0.00008933,-0.00002827,0.00008966,0.0000328
 0,-0.00007081,0.00003588,-0.00005571,0.00009426,-0.00005311,-0.0000553
 1,0.00000278,0.00008181,-0.00037228,-0.00013178,-0.00039217,0.00001513
 ,-0.00004612,0.00002883,0.00002131,-0.00003942,0.00000906,0.00005077,-
 0.00000958,-0.00004143,0.00000878,-0.00000635,-0.00003563,0.00042177,0
 .00011107,0.00020478,0.00006749,0.00006066,0.00005317,-0.00010938,-0.0
 0007326,0.00012059,-0.00003008,0.00000641,0.00001634,-0.00001773,0.000
 04342,-0.00003819,0.00002214,0.00004561,-0.00004803,0.00004403,-0.0000
 0305,-0.00003353,0.00007029,0.00004455,0.00001139,0.00000590,-0.000010
 13,-0.00001278,0.00001409,0.00000624,-0.00000630,0.00000901,-0.0000033
 7,-0.00000081,0.00001916,-0.00003057,0.00001399,0.00000879,-0.00000585
 ,0.00002324,-0.00000774,-0.00001761,0.00000667,0.00027672,0.00011152,-
 0.00004884,0.00000935,0.00000908,-0.00001973,-0.00255796,-0.00026289,-
 0.00124993,0.00045082,0.00044789,-0.00072830,-0.00066033,-0.00004844,0
 .00140361,0.00312568,-0.00360273,-0.00003974,-0.00043799,0.00045214,0.
 00010921,0.00048684,-0.00333902,0.00268260,-0.00056792,0.00190024,-0.0
 0103674,-0.00034399,0.00059428,-0.00049728,0.00011437,0.00014847,-0.00
 014843,-0.00033419,-0.00012730,0.00028644,-0.00062152,-0.00103208,-0.0
 0116931,0.00433672,-0.00551111,-0.00804878,0.00238041,-0.00217380,0.00
 417144,0.04902276,-0.14784357,-0.24621238,-0.05448236,0.15995246,0.250
 69672,0.00427434,0.00153125,0.00181480,-0.00169302,0.00022686,0.001269
 53,0.00038114,0.00039341,0.00108364,0.00032578,0.00018102,0.00035230,0
 .00149886,0.00015111,-0.00056024,-0.00026574,-0.00073226,-0.00181309,0
 .00673275,0.00314028,0.00422781,-0.04657151,-0.00121875,0.00210751,-0.
 03742086,-0.01284468,-0.01157929,-0.00006399,-0.00001694,-0.00000996,0
 .00014920,0.00001447,-0.00003175,0.00004815,0.00001505,0.00001337,0.00
 005896,0.00005717,0.00012076,-0.00021724,-0.00007257,-0.00020891,-0.02
 535971,0.00244123,-0.02618023,-0.02400777,0.01454598,0.01801645,0.0104
 7637,-0.00520518,-0.00922502,0.00685577,0.00672069,0.01204225,0.001032
 02,0.00268107,0.00420845,0.00202523,-0.00094558,-0.00504516,0.00027640
 ,-0.00016125,-0.00031240,-0.00029246,0.00006554,-0.00029178,-0.0004246
 1,-0.00029785,-0.00019984,0.00015151,0.00017411,0.00041688,-0.00036997
 ,-0.00020125,0.00043593,-0.00053011,0.00004593,0.00039189,-0.00968592,
 -0.00703069,0.00393760,-0.01686403,0.00370811,-0.01129749,-0.01980806,
 -0.00062335,-0.00910421,0.03014673,0.00322288,0.01999057,-0.03452687,0
 .02282907,0.04074749,0.01812598,-0.02928125,0.00797582,-0.01922925,-0.
 00571865,-0.00692520,-0.00543923,0.00070773,-0.00290573,-0.00587730,0.
 00082616,-0.00210793,0.00583234,-0.00513423,-0.01073887,-0.01378085,0.
 00511021,-0.00533532,-0.00431440,0.00687192,0.00101111,-0.00325292,-0.
 00612683,-0.00184505,-0.01649748,0.00263757,0.00326730,0.00006805,-0.0
 0434613,0.00009079,0.00070756,0.00307783,-0.00208147,-0.00029005,0.002
 69110,0.00100721,0.00097669,0.00120440,0.00106129,0.00697286,-0.001906
 53,-0.00332795,0.00549745,0.00269100,-0.00149577,0.00568615,-0.0042003
 2,0.00093073,-0.00141009,0.00236520,-0.00063984,-0.00043335,0.00035773
 ,-0.00225727,-0.00085714,0.00006015,0.00060636,-0.00688517,-0.00110311
 ,0.00013596,-0.00039697,-0.00011975,0.00039298,-0.00041335,-0.00104856
 ,-0.00019891,-0.00054168,0.00037644,0.00005678,-0.00027564,0.00072214,
 0.00030739,0.00059040,0.00030639,-0.00003965,-0.00001802,0.00026385,0.
 00010436,-0.00006522,-0.00010859,-0.00008963,0.00018669,-0.00023204,0.
 00017856,-0.00000156,-0.00000866,-0.00000181,0.00004572,-0.00004895,-0
 .00005090,0.00019917,-0.00020171,-0.00007422,0.00050252,-0.00073458,0.
 00005272,0.00066600,0.00081338,0.00047360,-0.00019079,-0.00026684,-0.0
 0029065,-0.00030855,0.00003664,0.00017214,0.00003930,0.00022599,-0.000
 38342,0.18609345,-0.00037096,-0.00013203,-0.00018411,0.00016987,-0.000
 01668,-0.00009886,-0.00004028,-0.00005508,-0.00010016,-0.00003707,-0.0
 0001039,-0.00001744,-0.00010764,-0.00003214,0.00004276,0.00000604,0.00
 004921,0.00017106,-0.00057320,-0.00406032,-0.00623670,0.01719131,0.005
 94453,0.00545478,-0.01097630,0.00096329,0.00252716,0.00000074,0.000021
 92,-0.00001164,-0.00001365,0.00000686,-0.00000135,-0.00000457,0.000005
 87,-0.00000254,-0.00001364,0.00000601,-0.00001570,-0.00000389,0.000048
 16,0.00000326,0.00526976,-0.00884038,-0.00058154,0.00329584,-0.0159141
 7,-0.00604672,-0.00386026,0.00164277,0.00048515,-0.00022792,0.00032874
 ,-0.00115927,0.00007579,0.00001548,-0.00098038,-0.00022407,0.00030377,
 -0.00015802,-0.00013425,-0.00005402,0.00004800,0.00029336,-0.00039019,
 0.00002847,0.00015000,0.00015581,0.00007294,0.00007158,-0.00003334,-0.
 00000141,0.00003368,-0.00022294,-0.00017581,-0.00000850,-0.00009112,-0
 .00003876,-0.00329899,-0.02326700,0.00846583,-0.00534253,-0.01552190,-
 0.00883950,-0.00455866,-0.00443772,-0.01202793,0.00602332,-0.04347624,
 0.04367126,0.02106412,0.03353055,-0.02804622,-0.01937368,-0.05876485,-
 0.03256994,0.00210575,-0.01234935,0.00445569,-0.00349839,0.00897732,-0
 .00516373,-0.00225834,-0.02977129,0.00514721,-0.00286038,-0.00471784,0
 .00561045,0.00671299,-0.00054805,0.00861383,-0.00074609,0.01123236,0.0
 0859613,-0.01249964,-0.00698972,0.00613615,0.00407793,-0.00028951,0.00
 423631,-0.01007628,0.00103936,0.00967674,0.00246662,0.00407159,-0.0033
 2255,0.00376210,0.00015317,-0.00207438,0.00599770,0.00388870,0.0016647
 0,-0.00089857,-0.00153362,-0.00153898,-0.00372880,-0.00232077,-0.00018
 632,-0.00021074,-0.00022477,-0.00030285,0.00322831,-0.00219755,-0.0020
 3392,0.00093652,0.00003946,-0.00643279,0.00392513,0.00237290,-0.002507
 49,0.00075004,0.00029434,-0.00016874,0.00010735,0.00009527,-0.00002784
 ,-0.00079145,-0.00061849,-0.00038200,0.00063136,-0.00005162,-0.0003784
 6,-0.00016252,0.00024675,0.00050976,0.00111186,0.00043942,-0.00022965,
 0.00033994,-0.00006089,0.00001515,-0.00046171,-0.00022340,-0.00021501,
 0.00042568,-0.00127389,0.00059010,-0.00003838,-0.00000899,0.00001593,0
 .00009257,-0.00015060,-0.00006643,-0.00045059,-0.00005513,0.00021768,-
 0.00004775,-0.00020804,-0.00034675,0.00149234,0.00079945,0.00040539,-0
 .00032263,-0.00021692,-0.00018542,-0.00070950,0.00003546,0.00027149,0.
 00011922,-0.00000256,0.00033902,-0.00245584,0.16306684,0.00023278,0.00
 012634,-0.00005542,-0.00003744,0.00004826,0.00008317,0.00000375,-0.000
 00091,0.00001011,0.00001372,0.00001977,0.00004942,0.00011642,0.0000006
 8,-0.00005622,-0.00008985,-0.00003352,-0.00003116,0.00261489,-0.005750
 77,-0.01776727,0.03176511,0.00946316,0.01405267,-0.04558130,-0.0074917
 2,0.01020676,0.00000816,-0.00000856,-0.00000280,0.00001502,-0.00000145
 ,0.00000122,0.00000262,0.00000080,0.00000043,-0.00001109,-0.00000604,0
 .00000379,-0.00010564,-0.00000612,-0.00002974,-0.00502953,0.00378373,-
 0.03315305,-0.00079271,-0.00839568,-0.01903102,-0.00439381,-0.00018107
 ,-0.00004429,0.00735398,0.00282316,0.00407925,0.00011449,-0.00040397,-
 0.00079310,0.00044991,-0.00031657,-0.00241093,-0.00024263,-0.00002618,
 -0.00004509,0.00030813,-0.00039657,-0.00001901,0.00021454,0.00001947,-
 0.00036834,0.00032193,0.00005943,0.00009481,-0.00024778,-0.00059251,-0
 .00003612,-0.00040232,0.00010301,-0.00010790,0.00330886,0.01201473,-0.
 01939177,-0.01197172,0.00184337,-0.02602206,-0.00573919,-0.00449896,-0
 .01247221,0.01787216,0.04874191,-0.00053546,0.03672153,-0.02826307,-0.
 01981432,0.01212909,-0.02956889,0.02683517,-0.01341870,-0.00178947,-0.
 02653542,-0.00035090,-0.01086823,-0.00046282,-0.00058920,0.00118943,-0
 .01025023,-0.00482590,0.00516996,0.00568433,-0.00554642,0.00179703,-0.
 01876595,-0.00262418,0.00470656,-0.00357660,-0.00600581,0.00149108,0.0
 0144283,0.00811199,0.00358724,0.00959475,0.00403617,0.00133242,-0.0090
 0314,0.00161135,0.00230931,-0.00238782,0.00154393,-0.00114784,-0.00145
 197,0.00054352,-0.00017119,-0.00031785,-0.00066336,-0.00146274,-0.0053
 6670,-0.00333438,-0.00165828,-0.00096072,-0.00457459,0.00196828,-0.002
 46930,-0.00157184,-0.00010779,0.00181290,-0.00021940,-0.00034635,0.002
 56264,-0.00385539,-0.00318038,0.00254758,-0.00003415,-0.00019169,0.000
 06452,0.00022571,0.00001814,0.00009021,-0.00016350,-0.00022499,-0.0002
 6994,-0.00004355,-0.00006581,0.00003180,-0.00018971,0.00032603,0.00049
 049,0.00008053,0.00006449,-0.00002933,0.00002994,-0.00006668,0.0000322
 6,0.00001196,-0.00001660,-0.00014097,0.00011030,-0.00004805,0.00018915
 ,0.00001304,-0.00002091,0.00000277,0.00002438,-0.00007570,0.00000145,0
 .00001867,0.00001141,-0.00005573,0.00021493,-0.00026781,-0.00029647,0.
 00039230,0.00015221,0.00017578,0.00001741,-0.00008582,-0.00024468,-0.0
 0017251,0.00009637,0.00031246,-0.00007790,0.00007173,-0.00001786,-0.00
 839330,0.00557358,0.15628502,-0.08082293,-0.00576193,0.02014174,0.0077
 7122,-0.00279183,-0.00943374,-0.00589345,-0.00225790,-0.00265710,0.001
 20855,0.00109689,0.00258639,-0.00318228,-0.00023767,0.00080937,0.00459
 909,0.00456875,0.01090768,-0.24092960,-0.05946853,-0.02239050,-0.02935
 563,-0.00922870,-0.00666597,-0.05130573,-0.00710435,0.00789882,0.00022
 787,0.00036783,0.00024606,-0.00060735,-0.00018720,-0.00032140,-0.00010
 827,-0.00004692,-0.00005322,0.00002001,-0.00005316,-0.00008788,-0.0007
 0294,-0.00028567,-0.00073095,-0.00647080,-0.00028700,0.00672321,-0.005
 37269,-0.00403415,-0.00388376,0.00159099,0.00425839,0.00302002,-0.0016
 6750,-0.00253717,-0.00313732,0.00063072,-0.00046869,0.00039482,0.00021
 920,0.00020992,-0.00094087,-0.00001735,0.00006984,0.00000976,-0.000292
 80,0.00011179,0.00018633,-0.00016651,0.00026218,0.00033823,0.00003211,
 0.00001091,-0.00000774,-0.00019507,-0.00012052,-0.00014618,-0.00008686
 ,-0.00012443,-0.00026522,-0.00041209,0.00009165,0.00015805,-0.00021284
 ,-0.00034374,-0.00004438,0.00096420,-0.00000092,0.00024128,-0.00029061
 ,-0.00020303,-0.00041156,0.00042178,-0.00027128,-0.00024779,0.00015055
 ,0.00051359,0.00006234,0.00009008,0.00035770,-0.00008122,0.00001370,0.
 00004560,0.00005043,-0.00024286,0.00016100,0.00009740,-0.00007942,0.00
 006239,0.00010619,-0.00012544,-0.00027852,-0.00000037,0.00000771,-0.00
 016242,-0.00007288,0.00014395,0.00010292,-0.00005168,0.00016563,0.0000
 1157,0.00004712,0.00005229,0.00001064,0.00000515,-0.00002751,-0.000062
 94,0.00004945,-0.00004060,-0.00001939,0.00001457,-0.00006997,-0.000046
 89,-0.00002559,-0.00004733,0.00000229,-0.00001371,-0.00006656,-0.00003
 607,0.00000696,-0.00007677,0.00004953,-0.00002567,-0.00003346,0.000070
 32,-0.00008926,-0.00001906,-0.00000125,-0.00000220,-0.00000236,0.00000
 831,-0.00000837,-0.38176058,0.02428351,0.21749497,-0.00389974,0.000620
 88,0.01057752,-0.00097045,0.00065205,-0.00041432,0.00083782,0.00106676
 ,-0.00058982,-0.00044641,0.00170943,-0.00053351,0.00024197,0.00040123,
 0.00064221,-0.00033719,-0.00017892,-0.00003592,0.00027054,-0.00008823,
 -0.00049249,-0.00000109,0.00001581,-0.00000084,-0.00000415,0.00000054,
 0.00000007,-0.00000670,0.00001464,-0.00001074,-0.00020836,-0.00034064,
 0.00051147,-0.00001826,-0.00017683,0.00012129,0.00035036,0.00002069,-0
 .00001618,0.00014587,0.00019772,0.00011208,-0.00058656,-0.00087536,-0.
 00011783,-0.00008204,0.00010505,-0.00009491,0.00195735,-0.00054116,0.0
 0074649,0.79513261,-0.00651397,0.00476827,0.01283816,-0.00342290,0.002
 54896,-0.00140218,-0.00053121,-0.00021498,0.00110351,-0.00014215,-0.00
 000686,0.00076116,0.00151586,0.00003472,0.00030963,-0.00063985,-0.0018
 4974,-0.00238211,-0.04948337,-0.05481197,-0.02684089,-0.01969769,-0.00
 743717,-0.00248088,-0.00211831,-0.00276926,0.01178005,-0.00012706,0.00
 012565,-0.00004084,-0.00002272,-0.00020327,-0.00004289,-0.00006594,0.0
 0021331,-0.00004295,0.00004482,0.00023534,0.00000147,-0.00078248,0.000
 58119,0.00005074,0.00294115,0.00555931,-0.00304165,-0.00077442,0.00378
 942,-0.00427939,0.00006304,0.00212971,0.00526946,0.00221508,-0.0016313
 0,-0.00512926,-0.00002424,-0.00103009,-0.00012711,0.00011960,0.0000000
 5,0.00166016,0.00000177,0.00003138,0.00011075,-0.00004588,0.00003949,0
 .00004703,0.00010451,0.00019341,0.00030467,-0.00001800,-0.00008324,-0.
 00008589,0.00020366,-0.00004646,-0.00033368,0.00005973,-0.00003437,-0.
 00017145,0.00026276,-0.00004793,-0.00008936,0.00003450,0.00024349,0.00
 011222,0.00055273,-0.00037890,0.00059317,-0.00062415,0.00023039,-0.000
 80242,-0.00032890,0.00009489,0.00018000,-0.00005713,-0.00035305,-0.000
 22111,0.00016874,0.00008931,0.00026745,0.00017284,-0.00018968,0.000168
 95,0.00022042,-0.00002082,-0.00009599,0.00007749,-0.00002553,-0.000070
 27,0.00012361,0.00031364,0.00010327,-0.00006647,0.00015053,0.00008139,
 -0.00006171,-0.00008558,0.00002776,-0.00015643,-0.00001833,-0.00005487
 ,0.00002709,0.00007521,-0.00031508,0.00000942,0.00003915,-0.00002379,0
 .00001133,0.00002322,0.00000273,0.00004870,0.00003829,0.00002390,0.000
 04260,0.00000600,0.00002255,0.00006859,0.00003882,-0.00000467,0.000063
 34,-0.00003300,0.00002196,0.00002734,-0.00000185,0.00006230,0.00003459
 ,-0.00000769,0.00021162,-0.00003659,-0.00004252,0.00006155,0.01119496,
 -0.06199968,-0.03953043,0.00989573,0.01808333,-0.01031560,-0.00031761,
 -0.00373712,0.00126297,-0.00126555,0.00050034,0.00038758,0.00059991,-0
 .00327279,0.00025364,0.00023880,0.00033163,0.00025402,-0.00059438,-0.0
 0016324,0.00015384,0.00020973,-0.00030977,-0.00045625,-0.00000515,-0.0
 0000710,-0.00000125,0.00000190,0.00000015,-0.00001763,0.00000867,0.000
 01475,0.00000351,0.00017705,0.00008298,-0.00016752,-0.00048101,-0.0003
 2568,0.00004882,0.00150007,0.00060849,0.00070751,0.00009271,-0.0000195
 8,-0.00016622,-0.00070536,-0.00049341,0.00001367,-0.00001714,-0.000063
 29,0.00000837,-0.00109816,-0.00064185,-0.00117418,0.05709109,0.1011423
 2,0.01949658,0.01255488,0.02121465,-0.00875739,-0.00139386,0.00329214,
 0.00094402,0.00124309,0.00295124,-0.00148547,0.00007339,0.00091243,0.0
 0529031,0.00089738,0.00047297,-0.00507178,-0.00381974,-0.01158179,-0.0
 1410541,-0.02095290,-0.07120562,-0.03100992,-0.00788490,-0.00946140,0.
 02404760,0.01045300,0.01100912,-0.00032119,-0.00021924,0.00001821,0.00
 014915,0.00005178,-0.00009428,-0.00001448,-0.00000538,0.00011300,0.000
 17911,0.00004767,0.00019374,-0.00219904,-0.00004572,0.00001813,0.01104
 106,-0.00188807,-0.00479886,0.00466856,-0.00373320,-0.00182754,-0.0023
 4252,0.00504699,0.00823274,0.00608960,-0.00116484,-0.00731372,-0.00046
 230,-0.00045597,-0.00168650,-0.00017344,0.00105736,0.00252981,0.000054
 13,0.00019141,0.00019613,0.00013089,0.00027875,0.00032541,0.00013930,0
 .00006124,0.00018811,-0.00007673,-0.00006346,-0.00014882,0.00026403,0.
 00000204,-0.00028060,0.00025393,-0.00002690,-0.00031801,0.00076707,-0.
 00013705,-0.00030712,0.00028564,0.00057761,0.00026218,0.00059933,-0.00
 081180,0.00085549,-0.00065307,0.00101472,-0.00099273,-0.00094806,0.000
 37436,0.00055887,-0.00041259,-0.00085921,-0.00065516,0.00024693,-0.000
 46041,0.00053524,0.00021664,-0.00042337,0.00021199,0.00065100,-0.00022
 431,-0.00025036,0.00019987,-0.00010951,-0.00022963,0.00056207,0.000777
 65,0.00028918,-0.00000161,0.00030840,0.00021037,-0.00032409,-0.0002457
 3,0.00012928,-0.00040186,-0.00000834,-0.00012904,0.00013792,0.00041368
 ,-0.00055166,0.00005963,0.00012166,-0.00008752,0.00009770,0.00003823,-
 0.00003360,0.00018488,0.00012637,0.00007464,0.00011261,0.00000125,0.00
 004007,0.00016921,0.00008753,-0.00001273,0.00017275,-0.00010895,0.0000
 5784,0.00005068,-0.00013848,0.00015412,0.00004701,-0.00004744,0.000342
 35,-0.00016907,-0.00020926,0.00010630,0.18872745,-0.04455884,-0.249329
 40,0.03760580,-0.00732732,-0.01004620,0.00023709,-0.00112408,0.0000268
 7,0.00032889,-0.00012664,-0.00017534,0.00002588,0.00095607,-0.00184180
 ,-0.00003571,0.00000038,-0.00008325,-0.00008535,-0.00006699,0.00006471
 ,-0.00000457,-0.00005855,0.00000331,-0.00000077,-0.00003473,0.00001050
 ,0.00001029,0.00000752,-0.00000167,0.00000275,0.00000167,0.00000242,-0
 .00061065,-0.00005600,0.00013443,-0.00058245,0.00162504,0.00011852,0.0
 0016969,0.00001977,0.00019858,0.00003410,0.00002929,0.00001856,-0.0000
 4469,-0.00000680,0.00001854,0.00000755,-0.00008980,0.00008211,-0.00396
 009,-0.00018866,-0.00194697,-0.23020438,0.06063628,0.31921701\\0.00000
 016,-0.00000025,-0.00000099,-0.00000002,-0.00000045,-0.00000138,0.0000
 0017,-0.00000046,-0.00000162,0.00000048,-0.00000048,-0.00000167,0.0000
 0059,-0.00000040,-0.00000140,0.00000047,-0.00000025,-0.00000108,0.0000
 0032,-0.00000033,0.00000037,0.00000032,0.00000021,-0.00000057,-0.00000
 014,0.00000033,-0.00000001,-0.00000031,-0.00000044,-0.00000133,-0.0000
 0001,-0.00000059,-0.00000183,0.00000058,-0.00000049,-0.00000188,0.0000
 0094,-0.00000029,-0.00000143,0.00000066,-0.00000016,-0.00000091,0.0000
 0077,-0.00000002,0.00000023,-0.00000048,-0.00000016,0.00000030,-0.0000
 0043,-0.00000013,0.00000022,0.00000065,-0.00000006,-0.00000034,-0.0000
 0085,-0.00000023,-0.00000040,0.00000098,0.00000011,0.00000002,-0.00000
 087,-0.00000023,-0.00000024,-0.00000065,-0.00000013,0.00000015,-0.0000
 0088,-0.00000019,0.00000007,0.00000116,0.00000013,-0.00000027,0.000000
 96,0.00000024,0.00000009,0.00000096,0.00000028,0.,0.00000065,-0.000000
 02,0.00000107,-0.00000065,-0.00000013,0.00000089,0.00000008,-0.0000002
 1,0.00000020,0.00000049,0.00000015,0.00000044,0.00000082,0.00000084,0.
 00000084,-0.00000054,0.00000055,0.00000116,-0.00000027,0.00000030,0.00
 000060,-0.00000026,0.,0.00000057,-0.00000005,0.,0.00000096,0.00000071,
 0.00000048,0.00000109,0.00000051,-0.00000033,0.00000073,-0.00000059,0.
 00000023,0.00000096,0.,0.00000050,0.00000137,0.00000015,0.00000005,0.0
 0000190,-0.00000012,0.00000017,0.00000027,-0.00000014,0.00000038,0.000
 00116,-0.00000008,0.00000036,0.00000148,-0.00000058,0.00000031,0.00000
 130,0.,0.00000055,0.00000108,0.00000059,0.00000076,0.00000149,0.000000
 22,0.00000077,0.00000141,-0.00000066,-0.00000005,0.00000001,-0.0000008
 3,-0.00000008,0.00000011,-0.00000053,-0.00000019,-0.00000009,-0.000000
 07,-0.00000029,-0.00000045,-0.00000024,-0.00000025,-0.00000089,-0.0000
 0061,-0.00000087,-0.00000130,0.00000024,0.00000005,-0.00000026,0.00000
 037,-0.00000005,-0.00000031,-0.00000047,0.00000067,0.00000029,-0.00000
 053,-0.00000013,0.00000016,-0.00000044,-0.00000014,-0.00000005,-0.0000
 0008,-0.00000026,0.00000062,-0.00000094,-0.00000023,-0.00000016,-0.000
 00082,-0.00000004,0.00000049,-0.00000045,-0.00000054,-0.00000119,0.000
 00063,0.00000005,-0.00000067,0.00000003,0.00000032,0.00000006,-0.00000
 046,-0.00000024,-0.00000058,-0.00000031,-0.00000017,0.00000003,0.00000
 020,-0.00000005,0.00000005,-0.00000048,0.00000122,0.00000018,-0.000000
 02,-0.00000002,-0.00000112\\\@


 LIVE PURE, SPEAK TRUE, RIGHT WRONG, FOLLOW THE KING...
 ELSE, WHEREFORE BORN......
           IDYLLS OF THE KING, TENNYSON
 Job cpu time:       3 days 12 hours 53 minutes 54.1 seconds.
 Elapsed time:       0 days  3 hours 32 minutes 30.9 seconds.
 File lengths (MBytes):  RWF=  13944 Int=      0 D2E=      0 Chk=    120 Scr=      8
 Normal termination of Gaussian 16 at Mon Apr 28 16:53:09 2025.
