 Entering Gaussian System, Link 0=/sysapps/ubuntu-applications/gaussian-new/avx/g16//g16
 Input=TS1.in
 Output=TS1.log
 Initial command:
 /sysapps/ubuntu-applications/gaussian-new/avx/g16/l1.exe "/data/temp-scratch/sgozem/308774/Gau-48937.inp" -scrdir="/data/temp-scratch/sgozem/308774/"
 Entering Link 1 = /sysapps/ubuntu-applications/gaussian-new/avx/g16/l1.exe PID=     48939.
  
 Copyright (c) 1988,1990,1992,1993,1995,1998,2003,2009,2016,
            Gaussian, Inc.  All Rights Reserved.
  
 This is part of the Gaussian(R) 16 program.  It is based on
 the Gaussian(R) 09 system (copyright 2009, Gaussian, Inc.),
 the Gaussian(R) 03 system (copyright 2003, Gaussian, Inc.),
 the Gaussian(R) 98 system (copyright 1998, Gaussian, Inc.),
 the Gaussian(R) 94 system (copyright 1995, Gaussian, Inc.),
 the Gaussian 92(TM) system (copyright 1992, Gaussian, Inc.),
 the Gaussian 90(TM) system (copyright 1990, Gaussian, Inc.),
 the Gaussian 88(TM) system (copyright 1988, Gaussian, Inc.),
 the Gaussian 86(TM) system (copyright 1986, Carnegie Mellon
 University), and the Gaussian 82(TM) system (copyright 1983,
 Carnegie Mellon University). Gaussian is a federally registered
 trademark of Gaussian, Inc.
  
 This software contains proprietary and confidential information,
 including trade secrets, belonging to Gaussian, Inc.
  
 This software is provided under written license and may be
 used, copied, transmitted, or stored only in accord with that
 written license.
  
 The following legend is applicable only to US Government
 contracts under FAR:
  
                    RESTRICTED RIGHTS LEGEND
  
 Use, reproduction and disclosure by the US Government is
 subject to restrictions as set forth in subparagraphs (a)
 and (c) of the Commercial Computer Software - Restricted
 Rights clause in FAR 52.227-19.
  
 Gaussian, Inc.
 340 Quinnipiac St., Bldg. 40, Wallingford CT 06492
  
  
 ---------------------------------------------------------------
 Warning -- This program may not be used in any manner that
 competes with the business of Gaussian, Inc. or will provide
 assistance to any competitor of Gaussian, Inc.  The licensee
 of this program is prohibited from giving any competitor of
 Gaussian, Inc. access to this program.  By using this program,
 the user acknowledges that Gaussian, Inc. is engaged in the
 business of creating and licensing software in the field of
 computational chemistry and represents and warrants to the
 licensee that it is not a competitor of Gaussian, Inc. and that
 it will not use this program in any manner prohibited above.
 ---------------------------------------------------------------
  

 Cite this work as:
 Gaussian 16, Revision A.03,
 M. J. Frisch, G. W. Trucks, H. B. Schlegel, G. E. Scuseria, 
 M. A. Robb, J. R. Cheeseman, G. Scalmani, V. Barone, 
 G. A. Petersson, H. Nakatsuji, X. Li, M. Caricato, A. V. Marenich, 
 J. Bloino, B. G. Janesko, R. Gomperts, B. Mennucci, H. P. Hratchian, 
 J. V. Ortiz, A. F. Izmaylov, J. L. Sonnenberg, D. Williams-Young, 
 F. Ding, F. Lipparini, F. Egidi, J. Goings, B. Peng, A. Petrone, 
 T. Henderson, D. Ranasinghe, V. G. Zakrzewski, J. Gao, N. Rega, 
 G. Zheng, W. Liang, M. Hada, M. Ehara, K. Toyota, R. Fukuda, 
 J. Hasegawa, M. Ishida, T. Nakajima, Y. Honda, O. Kitao, H. Nakai, 
 T. Vreven, K. Throssell, J. A. Montgomery, Jr., J. E. Peralta, 
 F. Ogliaro, M. J. Bearpark, J. J. Heyd, E. N. Brothers, K. N. Kudin, 
 V. N. Staroverov, T. A. Keith, R. Kobayashi, J. Normand, 
 K. Raghavachari, A. P. Rendell, J. C. Burant, S. S. Iyengar, 
 J. Tomasi, M. Cossi, J. M. Millam, M. Klene, C. Adamo, R. Cammi, 
 J. W. Ochterski, R. L. Martin, K. Morokuma, O. Farkas, 
 J. B. Foresman, and D. J. Fox, Gaussian, Inc., Wallingford CT, 2016.
 
 ******************************************
 Gaussian 16:  ES64L-G16RevA.03 25-Dec-2016
                 2-May-2025 
 ******************************************
 %chk=TS2.chk
 %mem=92Gb
 %nprocshared=24
 Will use up to   24 processors via shared memory.
 ----------------------------------------------------------------------
 #P UMN15/genecp scf=(maxcyc=500) opt=(TS,noeigentest,calcFC) freq scrf
 =(smd,solvent=DiChloroEthane)
 ----------------------------------------------------------------------
 1/5=1,10=4,11=1,18=20,26=3,38=1/1,3;
 2/9=110,12=2,17=6,18=5,40=1/2;
 3/5=7,11=2,16=1,17=8,25=1,30=1,70=32201,71=2,72=10,74=-73,116=2,140=1/1,2,3;
 4//1;
 5/5=2,7=500,38=5,53=10/2;
 8/6=4,10=90,11=11/1;
 11/6=1,8=1,9=11,15=111,16=1/1,2,10;
 10/6=1,13=1/2;
 6/7=2,8=2,9=2,10=2,28=1/1;
 7/10=1,18=20,25=1/1,2,3,16;
 1/5=1,10=4,11=1,18=20,26=3/3(2);
 2/9=110/2;
 99//99;
 2/9=110/2;
 3/5=7,6=1,11=2,16=1,17=8,25=1,30=1,70=32205,71=1,72=10,74=-73,82=7,116=2/1,2,3;
 4/5=5,16=3,69=1/1;
 5/5=2,7=500,38=5,53=10/2;
 7//1,2,3,16;
 1/5=1,11=1,18=20,26=3/3(-5);
 2/9=110/2;
 6/7=2,8=2,9=2,10=2,19=2,28=1/1;
 99/9=1/99;
 Leave Link    1 at Fri May  2 09:30:38 2025, MaxMem= 12348030976 cpu:               3.9 elap:               0.2
 (Enter /sysapps/ubuntu-applications/gaussian-new/avx/g16/l101.exe)
 ---
 Opt
 ---
 Symbolic Z-matrix:
 Charge =  0 Multiplicity = 1
 C                     4.70822  -1.60888   0.29133 
 C                     4.8888   -2.94296  -0.1519 
 C                     5.92094  -3.23716  -1.02849 
 C                     6.77267  -2.20911  -1.45822 
 C                     6.60414  -0.88666  -1.01981 
 C                     5.57088  -0.57415  -0.15043 
 C                     2.10032  -0.07717   1.25265 
 C                     1.84011   0.33643  -0.08656 
 C                     1.06389  -0.27839   2.22256 
 H                     4.21072  -3.72093   0.20552 
 H                     6.07275  -4.25844  -1.38092 
 H                     7.58647  -2.4433   -2.14854 
 H                     7.28484  -0.10682  -1.36488 
 H                     5.4184    0.44598   0.20829 
 O                    -0.15617  -0.11063   1.99338 
 O                     0.70548   0.30096  -0.61567 
 O                     2.87793   0.78857  -0.76061 
 O                     1.49366  -0.66493   3.39591 
 C                     2.64911   1.20457  -2.11011 
 C                     0.53557  -0.76321   4.45282 
 H                     3.5891    1.64668  -2.45646 
 H                     1.8351    1.9436   -2.14796 
 H                     2.37956   0.34169  -2.73434 
 H                     1.08445  -1.12027   5.3299 
 H                    -0.26011  -1.47119   4.18496 
 H                     0.10551   0.22786   4.65134 
 O                    -3.15069   0.12634   1.32081 
 O                    -2.16732   0.51424  -1.77076 
 O                     0.16749  -2.3944    0.45409 
 S                    -0.2189   -3.06658  -0.81894 
 S                    -3.69141  -1.25389   1.52058 
 S                    -1.96843   1.95414  -1.41201 
 O                    -1.05574  -2.07593  -1.56411 
 O                    -0.69154  -4.4256   -0.75489 
 O                    -2.65746  -2.15939   0.93053 
 O                    -4.2345   -1.59156   2.80817 
 O                    -1.47042   1.96604  -0.01087 
 O                    -1.28778   2.77577  -2.38643 
 C                    -3.66756   2.65297  -1.30441 
 C                    -5.07332  -1.33334   0.3094 
 C                     1.35005  -3.16362  -1.7843 
 F                    -3.58868   3.83404  -0.71266 
 F                    -4.45078   1.85706  -0.60418 
 F                    -4.15681   2.79995  -2.52069 
 F                    -4.58248  -1.11518  -0.90065 
 F                    -5.96458  -0.40611   0.59963 
 F                    -5.63501  -2.52486   0.35271 
 F                     2.03676  -2.03462  -1.68026 
 F                     1.07192  -3.3905   -3.05237 
 F                     2.07884  -4.15677  -1.30458 
 C                     3.65682  -1.35015   1.19998 
 H                     3.04168  -2.17436   1.58696 
 C                     3.03455   3.11748   1.57406 
 C                     4.41195   2.87107   1.41555 
 C                     2.32897   2.7081    2.7186 
 C                     0.36276   4.51003  -0.52923 
 C                     2.50987   4.76174  -1.50426 
 C                     1.13237   4.99083  -1.57994 
 H                    -0.72223   4.60915  -0.50744 
 H                     3.18886   5.0854   -2.29655 
 H                     0.69484   5.50744  -2.43357 
 N                     5.55192   2.64416   1.31102 
 N                     1.71765   2.36814   3.65445 
 N                     2.34133   3.72183   0.51392 
 N                     3.09835   4.14762  -0.49003 
 C                     0.99245   3.85591   0.51826 
 H                     0.45684   3.4321    1.36798 
 Lu                   -1.24993  -0.46197   0.10437 
 O                     3.4307   -0.14055   1.69646 
 
 Add virtual bond connecting atoms N62        and H14        Dist= 4.65D+00.
 ITRead=  0  0  0  0  0  0  0  0  0  0  0  0  0  0  0  0  0  0  0  0
 ITRead=  0  0  0  0  0  0  0  0  0  0  0  0  0  0  0  0  0  0  0  0
 ITRead=  0  0  0  0  0  0  0  0  0  0  0  0  0  0  0  0  0  0  0  0
 ITRead=  0  0  0  0  0  0  0  0  0
 MicOpt= -1 -1 -1 -1 -1 -1 -1 -1 -1 -1 -1 -1 -1 -1 -1 -1 -1 -1 -1 -1
 MicOpt= -1 -1 -1 -1 -1 -1 -1 -1 -1 -1 -1 -1 -1 -1 -1 -1 -1 -1 -1 -1
 MicOpt= -1 -1 -1 -1 -1 -1 -1 -1 -1 -1 -1 -1 -1 -1 -1 -1 -1 -1 -1 -1
 MicOpt= -1 -1 -1 -1 -1 -1 -1 -1 -1
 NAtoms=     69 NQM=       69 NQMF=       0 NMMI=      0 NMMIF=      0
                NMic=       0 NMicF=      0.
                    Isotopes and Nuclear Properties:
 (Nuclear quadrupole moments (NQMom) in fm**2, nuclear magnetic moments (NMagM)
  in nuclear magnetons)

  Atom         1           2           3           4           5           6           7           8           9          10
 IAtWgt=          12          12          12          12          12          12          12          12          12           1
 AtmWgt=  12.0000000  12.0000000  12.0000000  12.0000000  12.0000000  12.0000000  12.0000000  12.0000000  12.0000000   1.0078250
 NucSpn=           0           0           0           0           0           0           0           0           0           1
 AtZEff=  -0.0000000  -0.0000000  -0.0000000  -0.0000000  -0.0000000  -0.0000000  -0.0000000  -0.0000000  -0.0000000  -0.0000000
 NQMom=    0.0000000   0.0000000   0.0000000   0.0000000   0.0000000   0.0000000   0.0000000   0.0000000   0.0000000   0.0000000
 NMagM=    0.0000000   0.0000000   0.0000000   0.0000000   0.0000000   0.0000000   0.0000000   0.0000000   0.0000000   2.7928460
 AtZNuc=   6.0000000   6.0000000   6.0000000   6.0000000   6.0000000   6.0000000   6.0000000   6.0000000   6.0000000   1.0000000

  Atom        11          12          13          14          15          16          17          18          19          20
 IAtWgt=           1           1           1           1          16          16          16          16          12          12
 AtmWgt=   1.0078250   1.0078250   1.0078250   1.0078250  15.9949146  15.9949146  15.9949146  15.9949146  12.0000000  12.0000000
 NucSpn=           1           1           1           1           0           0           0           0           0           0
 AtZEff=  -0.0000000  -0.0000000  -0.0000000  -0.0000000  -0.0000000  -0.0000000  -0.0000000  -0.0000000  -0.0000000  -0.0000000
 NQMom=    0.0000000   0.0000000   0.0000000   0.0000000   0.0000000   0.0000000   0.0000000   0.0000000   0.0000000   0.0000000
 NMagM=    2.7928460   2.7928460   2.7928460   2.7928460   0.0000000   0.0000000   0.0000000   0.0000000   0.0000000   0.0000000
 AtZNuc=   1.0000000   1.0000000   1.0000000   1.0000000   8.0000000   8.0000000   8.0000000   8.0000000   6.0000000   6.0000000

  Atom        21          22          23          24          25          26          27          28          29          30
 IAtWgt=           1           1           1           1           1           1          16          16          16          32
 AtmWgt=   1.0078250   1.0078250   1.0078250   1.0078250   1.0078250   1.0078250  15.9949146  15.9949146  15.9949146  31.9720718
 NucSpn=           1           1           1           1           1           1           0           0           0           0
 AtZEff=  -0.0000000  -0.0000000  -0.0000000  -0.0000000  -0.0000000  -0.0000000  -0.0000000  -0.0000000  -0.0000000  -0.0000000
 NQMom=    0.0000000   0.0000000   0.0000000   0.0000000   0.0000000   0.0000000   0.0000000   0.0000000   0.0000000   0.0000000
 NMagM=    2.7928460   2.7928460   2.7928460   2.7928460   2.7928460   2.7928460   0.0000000   0.0000000   0.0000000   0.0000000
 AtZNuc=   1.0000000   1.0000000   1.0000000   1.0000000   1.0000000   1.0000000   8.0000000   8.0000000   8.0000000  16.0000000

  Atom        31          32          33          34          35          36          37          38          39          40
 IAtWgt=          32          32          16          16          16          16          16          16          12          12
 AtmWgt=  31.9720718  31.9720718  15.9949146  15.9949146  15.9949146  15.9949146  15.9949146  15.9949146  12.0000000  12.0000000
 NucSpn=           0           0           0           0           0           0           0           0           0           0
 AtZEff=  -0.0000000  -0.0000000  -0.0000000  -0.0000000  -0.0000000  -0.0000000  -0.0000000  -0.0000000  -0.0000000  -0.0000000
 NQMom=    0.0000000   0.0000000   0.0000000   0.0000000   0.0000000   0.0000000   0.0000000   0.0000000   0.0000000   0.0000000
 NMagM=    0.0000000   0.0000000   0.0000000   0.0000000   0.0000000   0.0000000   0.0000000   0.0000000   0.0000000   0.0000000
 AtZNuc=  16.0000000  16.0000000   8.0000000   8.0000000   8.0000000   8.0000000   8.0000000   8.0000000   6.0000000   6.0000000

  Atom        41          42          43          44          45          46          47          48          49          50
 IAtWgt=          12          19          19          19          19          19          19          19          19          19
 AtmWgt=  12.0000000  18.9984032  18.9984032  18.9984032  18.9984032  18.9984032  18.9984032  18.9984032  18.9984032  18.9984032
 NucSpn=           0           1           1           1           1           1           1           1           1           1
 AtZEff=  -0.0000000  -0.0000000  -0.0000000  -0.0000000  -0.0000000  -0.0000000  -0.0000000  -0.0000000  -0.0000000  -0.0000000
 NQMom=    0.0000000   0.0000000   0.0000000   0.0000000   0.0000000   0.0000000   0.0000000   0.0000000   0.0000000   0.0000000
 NMagM=    0.0000000   2.6288670   2.6288670   2.6288670   2.6288670   2.6288670   2.6288670   2.6288670   2.6288670   2.6288670
 AtZNuc=   6.0000000   9.0000000   9.0000000   9.0000000   9.0000000   9.0000000   9.0000000   9.0000000   9.0000000   9.0000000

  Atom        51          52          53          54          55          56          57          58          59          60
 IAtWgt=          12           1          12          12          12          12          12          12           1           1
 AtmWgt=  12.0000000   1.0078250  12.0000000  12.0000000  12.0000000  12.0000000  12.0000000  12.0000000   1.0078250   1.0078250
 NucSpn=           0           1           0           0           0           0           0           0           1           1
 AtZEff=  -0.0000000  -0.0000000  -0.0000000  -0.0000000  -0.0000000  -0.0000000  -0.0000000  -0.0000000  -0.0000000  -0.0000000
 NQMom=    0.0000000   0.0000000   0.0000000   0.0000000   0.0000000   0.0000000   0.0000000   0.0000000   0.0000000   0.0000000
 NMagM=    0.0000000   2.7928460   0.0000000   0.0000000   0.0000000   0.0000000   0.0000000   0.0000000   2.7928460   2.7928460
 AtZNuc=   6.0000000   1.0000000   6.0000000   6.0000000   6.0000000   6.0000000   6.0000000   6.0000000   1.0000000   1.0000000

  Atom        61          62          63          64          65          66          67          68          69
 IAtWgt=           1          14          14          14          14          12           1         175          16
 AtmWgt=   1.0078250  14.0030740  14.0030740  14.0030740  14.0030740  12.0000000   1.0078250 174.9409000  15.9949146
 NucSpn=           1           2           2           2           2           0           1           7           0
 AtZEff=  -0.0000000  -0.0000000  -0.0000000  -0.0000000  -0.0000000  -0.0000000  -0.0000000  -0.0000000  -0.0000000
 NQMom=    0.0000000   2.0440000   2.0440000   2.0440000   2.0440000   0.0000000   0.0000000 349.0000000   0.0000000
 NMagM=    2.7928460   0.4037610   0.4037610   0.4037610   0.4037610   0.0000000   2.7928460   2.2327000   0.0000000
 AtZNuc=   1.0000000   7.0000000   7.0000000   7.0000000   7.0000000   6.0000000   1.0000000  71.0000000   8.0000000
 Leave Link  101 at Fri May  2 09:30:38 2025, MaxMem= 12348030976 cpu:              11.2 elap:               0.5
 (Enter /sysapps/ubuntu-applications/gaussian-new/avx/g16/l103.exe)

 GradGradGradGradGradGradGradGradGradGradGradGradGradGradGradGradGradGrad
 Berny optimization.
 Initialization pass.
                           ----------------------------
                           !    Initial Parameters    !
                           ! (Angstroms and Degrees)  !
 --------------------------                            --------------------------
 ! Name  Definition              Value          Derivative Info.                !
 --------------------------------------------------------------------------------
 ! R1    R(1,2)                  1.4173         calculate D2E/DX2 analytically  !
 ! R2    R(1,6)                  1.4177         calculate D2E/DX2 analytically  !
 ! R3    R(1,51)                 1.4135         calculate D2E/DX2 analytically  !
 ! R4    R(2,3)                  1.3857         calculate D2E/DX2 analytically  !
 ! R5    R(2,10)                 1.0921         calculate D2E/DX2 analytically  !
 ! R6    R(3,4)                  1.4025         calculate D2E/DX2 analytically  !
 ! R7    R(3,11)                 1.091          calculate D2E/DX2 analytically  !
 ! R8    R(4,5)                  1.4034         calculate D2E/DX2 analytically  !
 ! R9    R(4,12)                 1.0925         calculate D2E/DX2 analytically  !
 ! R10   R(5,6)                  1.3861         calculate D2E/DX2 analytically  !
 ! R11   R(5,13)                 1.0911         calculate D2E/DX2 analytically  !
 ! R12   R(6,14)                 1.0921         calculate D2E/DX2 analytically  !
 ! R13   R(7,8)                  1.4256         calculate D2E/DX2 analytically  !
 ! R14   R(7,9)                  1.4337         calculate D2E/DX2 analytically  !
 ! R15   R(7,69)                 1.4039         calculate D2E/DX2 analytically  !
 ! R16   R(8,16)                 1.2524         calculate D2E/DX2 analytically  !
 ! R17   R(8,17)                 1.3175         calculate D2E/DX2 analytically  !
 ! R18   R(9,15)                 1.2527         calculate D2E/DX2 analytically  !
 ! R19   R(9,18)                 1.308          calculate D2E/DX2 analytically  !
 ! R20   R(14,62)                2.4629         calculate D2E/DX2 analytically  !
 ! R21   R(15,68)                2.2109         calculate D2E/DX2 analytically  !
 ! R22   R(16,68)                2.219          calculate D2E/DX2 analytically  !
 ! R23   R(17,19)                1.4306         calculate D2E/DX2 analytically  !
 ! R24   R(18,20)                1.4299         calculate D2E/DX2 analytically  !
 ! R25   R(19,21)                1.095          calculate D2E/DX2 analytically  !
 ! R26   R(19,22)                1.1001         calculate D2E/DX2 analytically  !
 ! R27   R(19,23)                1.0986         calculate D2E/DX2 analytically  !
 ! R28   R(20,24)                1.0945         calculate D2E/DX2 analytically  !
 ! R29   R(20,25)                1.0982         calculate D2E/DX2 analytically  !
 ! R30   R(20,26)                1.0984         calculate D2E/DX2 analytically  !
 ! R31   R(27,31)                1.4958         calculate D2E/DX2 analytically  !
 ! R32   R(27,68)                2.3321         calculate D2E/DX2 analytically  !
 ! R33   R(28,32)                1.4972         calculate D2E/DX2 analytically  !
 ! R34   R(28,68)                2.3045         calculate D2E/DX2 analytically  !
 ! R35   R(29,30)                1.4905         calculate D2E/DX2 analytically  !
 ! R36   R(29,68)                2.4219         calculate D2E/DX2 analytically  !
 ! R37   R(30,33)                1.4957         calculate D2E/DX2 analytically  !
 ! R38   R(30,34)                1.4403         calculate D2E/DX2 analytically  !
 ! R39   R(30,41)                1.8447         calculate D2E/DX2 analytically  !
 ! R40   R(30,68)                2.9495         calculate D2E/DX2 analytically  !
 ! R41   R(31,35)                1.4957         calculate D2E/DX2 analytically  !
 ! R42   R(31,36)                1.4377         calculate D2E/DX2 analytically  !
 ! R43   R(31,40)                1.8393         calculate D2E/DX2 analytically  !
 ! R44   R(31,68)                2.9315         calculate D2E/DX2 analytically  !
 ! R45   R(32,37)                1.4871         calculate D2E/DX2 analytically  !
 ! R46   R(32,38)                1.4449         calculate D2E/DX2 analytically  !
 ! R47   R(32,39)                1.8404         calculate D2E/DX2 analytically  !
 ! R48   R(32,68)                2.9416         calculate D2E/DX2 analytically  !
 ! R49   R(33,68)                2.3295         calculate D2E/DX2 analytically  !
 ! R50   R(35,68)                2.3548         calculate D2E/DX2 analytically  !
 ! R51   R(37,68)                2.4407         calculate D2E/DX2 analytically  !
 ! R52   R(39,42)                1.3234         calculate D2E/DX2 analytically  !
 ! R53   R(39,43)                1.318          calculate D2E/DX2 analytically  !
 ! R54   R(39,44)                1.3192         calculate D2E/DX2 analytically  !
 ! R55   R(40,45)                1.3239         calculate D2E/DX2 analytically  !
 ! R56   R(40,46)                1.3185         calculate D2E/DX2 analytically  !
 ! R57   R(40,47)                1.318          calculate D2E/DX2 analytically  !
 ! R58   R(41,48)                1.3255         calculate D2E/DX2 analytically  !
 ! R59   R(41,49)                1.3179         calculate D2E/DX2 analytically  !
 ! R60   R(41,50)                1.322          calculate D2E/DX2 analytically  !
 ! R61   R(51,52)                1.0989         calculate D2E/DX2 analytically  !
 ! R62   R(51,69)                1.3269         calculate D2E/DX2 analytically  !
 ! R63   R(53,54)                1.4082         calculate D2E/DX2 analytically  !
 ! R64   R(53,55)                1.4055         calculate D2E/DX2 analytically  !
 ! R65   R(53,64)                1.4035         calculate D2E/DX2 analytically  !
 ! R66   R(54,62)                1.167          calculate D2E/DX2 analytically  !
 ! R67   R(55,63)                1.1684         calculate D2E/DX2 analytically  !
 ! R68   R(56,58)                1.3883         calculate D2E/DX2 analytically  !
 ! R69   R(56,59)                1.0897         calculate D2E/DX2 analytically  !
 ! R70   R(56,66)                1.3862         calculate D2E/DX2 analytically  !
 ! R71   R(57,58)                1.3985         calculate D2E/DX2 analytically  !
 ! R72   R(57,60)                1.0925         calculate D2E/DX2 analytically  !
 ! R73   R(57,65)                1.3237         calculate D2E/DX2 analytically  !
 ! R74   R(58,61)                1.0895         calculate D2E/DX2 analytically  !
 ! R75   R(64,65)                1.3275         calculate D2E/DX2 analytically  !
 ! R76   R(64,66)                1.3555         calculate D2E/DX2 analytically  !
 ! R77   R(66,67)                1.0902         calculate D2E/DX2 analytically  !
 ! A1    A(2,1,6)              120.7976         calculate D2E/DX2 analytically  !
 ! A2    A(2,1,51)             117.9102         calculate D2E/DX2 analytically  !
 ! A3    A(6,1,51)             121.2853         calculate D2E/DX2 analytically  !
 ! A4    A(1,2,3)              119.5086         calculate D2E/DX2 analytically  !
 ! A5    A(1,2,10)             119.2778         calculate D2E/DX2 analytically  !
 ! A6    A(3,2,10)             121.2136         calculate D2E/DX2 analytically  !
 ! A7    A(2,3,4)              119.3757         calculate D2E/DX2 analytically  !
 ! A8    A(2,3,11)             120.4461         calculate D2E/DX2 analytically  !
 ! A9    A(4,3,11)             120.1781         calculate D2E/DX2 analytically  !
 ! A10   A(3,4,5)              121.473          calculate D2E/DX2 analytically  !
 ! A11   A(3,4,12)             119.2636         calculate D2E/DX2 analytically  !
 ! A12   A(5,4,12)             119.2633         calculate D2E/DX2 analytically  !
 ! A13   A(4,5,6)              119.8633         calculate D2E/DX2 analytically  !
 ! A14   A(4,5,13)             119.9859         calculate D2E/DX2 analytically  !
 ! A15   A(6,5,13)             120.1507         calculate D2E/DX2 analytically  !
 ! A16   A(1,6,5)              118.9788         calculate D2E/DX2 analytically  !
 ! A17   A(1,6,14)             119.6343         calculate D2E/DX2 analytically  !
 ! A18   A(5,6,14)             121.382          calculate D2E/DX2 analytically  !
 ! A19   A(8,7,9)              122.9774         calculate D2E/DX2 analytically  !
 ! A20   A(8,7,69)             118.8849         calculate D2E/DX2 analytically  !
 ! A21   A(9,7,69)             117.7011         calculate D2E/DX2 analytically  !
 ! A22   A(7,8,16)             123.6428         calculate D2E/DX2 analytically  !
 ! A23   A(7,8,17)             115.874          calculate D2E/DX2 analytically  !
 ! A24   A(16,8,17)            120.4778         calculate D2E/DX2 analytically  !
 ! A25   A(7,9,15)             124.1615         calculate D2E/DX2 analytically  !
 ! A26   A(7,9,18)             114.2568         calculate D2E/DX2 analytically  !
 ! A27   A(15,9,18)            121.5813         calculate D2E/DX2 analytically  !
 ! A28   A(9,15,68)            128.087          calculate D2E/DX2 analytically  !
 ! A29   A(8,16,68)            132.1414         calculate D2E/DX2 analytically  !
 ! A30   A(8,17,19)            117.1551         calculate D2E/DX2 analytically  !
 ! A31   A(9,18,20)            117.5944         calculate D2E/DX2 analytically  !
 ! A32   A(17,19,21)           106.1689         calculate D2E/DX2 analytically  !
 ! A33   A(17,19,22)           110.2527         calculate D2E/DX2 analytically  !
 ! A34   A(17,19,23)           110.2951         calculate D2E/DX2 analytically  !
 ! A35   A(21,19,22)           110.6758         calculate D2E/DX2 analytically  !
 ! A36   A(21,19,23)           110.3674         calculate D2E/DX2 analytically  !
 ! A37   A(22,19,23)           109.0595         calculate D2E/DX2 analytically  !
 ! A38   A(18,20,24)           106.1829         calculate D2E/DX2 analytically  !
 ! A39   A(18,20,25)           110.4554         calculate D2E/DX2 analytically  !
 ! A40   A(18,20,26)           109.5053         calculate D2E/DX2 analytically  !
 ! A41   A(24,20,25)           110.3937         calculate D2E/DX2 analytically  !
 ! A42   A(24,20,26)           110.2335         calculate D2E/DX2 analytically  !
 ! A43   A(25,20,26)           110.0029         calculate D2E/DX2 analytically  !
 ! A44   A(29,30,33)           105.7748         calculate D2E/DX2 analytically  !
 ! A45   A(29,30,34)           118.204          calculate D2E/DX2 analytically  !
 ! A46   A(29,30,41)           104.4886         calculate D2E/DX2 analytically  !
 ! A47   A(33,30,34)           117.6155         calculate D2E/DX2 analytically  !
 ! A48   A(33,30,41)           104.4766         calculate D2E/DX2 analytically  !
 ! A49   A(34,30,41)           104.6395         calculate D2E/DX2 analytically  !
 ! A50   A(34,30,68)           134.7986         calculate D2E/DX2 analytically  !
 ! A51   A(41,30,68)           120.5024         calculate D2E/DX2 analytically  !
 ! A52   A(27,31,35)           104.8357         calculate D2E/DX2 analytically  !
 ! A53   A(27,31,36)           118.2231         calculate D2E/DX2 analytically  !
 ! A54   A(27,31,40)           102.9156         calculate D2E/DX2 analytically  !
 ! A55   A(35,31,36)           118.1816         calculate D2E/DX2 analytically  !
 ! A56   A(35,31,40)           103.5003         calculate D2E/DX2 analytically  !
 ! A57   A(36,31,40)           107.2057         calculate D2E/DX2 analytically  !
 ! A58   A(36,31,68)           144.1686         calculate D2E/DX2 analytically  !
 ! A59   A(40,31,68)           108.6196         calculate D2E/DX2 analytically  !
 ! A60   A(28,32,37)           106.1381         calculate D2E/DX2 analytically  !
 ! A61   A(28,32,38)           116.6061         calculate D2E/DX2 analytically  !
 ! A62   A(28,32,39)           104.8658         calculate D2E/DX2 analytically  !
 ! A63   A(37,32,38)           118.2354         calculate D2E/DX2 analytically  !
 ! A64   A(37,32,39)           104.5408         calculate D2E/DX2 analytically  !
 ! A65   A(38,32,39)           104.9761         calculate D2E/DX2 analytically  !
 ! A66   A(38,32,68)           134.3955         calculate D2E/DX2 analytically  !
 ! A67   A(39,32,68)           120.481          calculate D2E/DX2 analytically  !
 ! A68   A(32,39,42)           108.0591         calculate D2E/DX2 analytically  !
 ! A69   A(32,39,43)           110.5111         calculate D2E/DX2 analytically  !
 ! A70   A(32,39,44)           109.3179         calculate D2E/DX2 analytically  !
 ! A71   A(42,39,43)           109.6814         calculate D2E/DX2 analytically  !
 ! A72   A(42,39,44)           109.5682         calculate D2E/DX2 analytically  !
 ! A73   A(43,39,44)           109.6771         calculate D2E/DX2 analytically  !
 ! A74   A(31,40,45)           108.4334         calculate D2E/DX2 analytically  !
 ! A75   A(31,40,46)           109.424          calculate D2E/DX2 analytically  !
 ! A76   A(31,40,47)           109.7308         calculate D2E/DX2 analytically  !
 ! A77   A(45,40,46)           109.6296         calculate D2E/DX2 analytically  !
 ! A78   A(45,40,47)           109.6949         calculate D2E/DX2 analytically  !
 ! A79   A(46,40,47)           109.9051         calculate D2E/DX2 analytically  !
 ! A80   A(30,41,48)           110.7776         calculate D2E/DX2 analytically  !
 ! A81   A(30,41,49)           109.4567         calculate D2E/DX2 analytically  !
 ! A82   A(30,41,50)           108.572          calculate D2E/DX2 analytically  !
 ! A83   A(48,41,49)           109.3587         calculate D2E/DX2 analytically  !
 ! A84   A(48,41,50)           109.0138         calculate D2E/DX2 analytically  !
 ! A85   A(49,41,50)           109.6441         calculate D2E/DX2 analytically  !
 ! A86   A(1,51,52)            120.3631         calculate D2E/DX2 analytically  !
 ! A87   A(1,51,69)            122.2849         calculate D2E/DX2 analytically  !
 ! A88   A(52,51,69)           117.1668         calculate D2E/DX2 analytically  !
 ! A89   A(54,53,55)           122.1218         calculate D2E/DX2 analytically  !
 ! A90   A(54,53,64)           118.2586         calculate D2E/DX2 analytically  !
 ! A91   A(55,53,64)           119.5114         calculate D2E/DX2 analytically  !
 ! A92   A(58,56,59)           122.3822         calculate D2E/DX2 analytically  !
 ! A93   A(58,56,66)           118.9138         calculate D2E/DX2 analytically  !
 ! A94   A(59,56,66)           118.6908         calculate D2E/DX2 analytically  !
 ! A95   A(58,57,60)           121.6289         calculate D2E/DX2 analytically  !
 ! A96   A(58,57,65)           123.7369         calculate D2E/DX2 analytically  !
 ! A97   A(60,57,65)           114.6343         calculate D2E/DX2 analytically  !
 ! A98   A(56,58,57)           116.6373         calculate D2E/DX2 analytically  !
 ! A99   A(56,58,61)           122.3143         calculate D2E/DX2 analytically  !
 ! A100  A(57,58,61)           121.0409         calculate D2E/DX2 analytically  !
 ! A101  A(14,62,54)            99.2467         calculate D2E/DX2 analytically  !
 ! A102  A(53,64,65)           115.3225         calculate D2E/DX2 analytically  !
 ! A103  A(53,64,66)           122.1193         calculate D2E/DX2 analytically  !
 ! A104  A(65,64,66)           122.558          calculate D2E/DX2 analytically  !
 ! A105  A(57,65,64)           118.3434         calculate D2E/DX2 analytically  !
 ! A106  A(56,66,64)           119.7533         calculate D2E/DX2 analytically  !
 ! A107  A(56,66,67)           123.3142         calculate D2E/DX2 analytically  !
 ! A108  A(64,66,67)           116.9325         calculate D2E/DX2 analytically  !
 ! A109  A(15,68,16)            77.6825         calculate D2E/DX2 analytically  !
 ! A110  A(15,68,27)            85.265          calculate D2E/DX2 analytically  !
 ! A111  A(15,68,28)           145.5718         calculate D2E/DX2 analytically  !
 ! A112  A(15,68,29)            73.375          calculate D2E/DX2 analytically  !
 ! A113  A(15,68,30)           103.5836         calculate D2E/DX2 analytically  !
 ! A114  A(15,68,31)            92.4172         calculate D2E/DX2 analytically  !
 ! A115  A(15,68,32)           115.515          calculate D2E/DX2 analytically  !
 ! A116  A(15,68,33)           132.9087         calculate D2E/DX2 analytically  !
 ! A117  A(15,68,35)            96.3435         calculate D2E/DX2 analytically  !
 ! A118  A(15,68,37)            85.8106         calculate D2E/DX2 analytically  !
 ! A119  A(16,68,27)           143.1998         calculate D2E/DX2 analytically  !
 ! A120  A(16,68,28)            86.6247         calculate D2E/DX2 analytically  !
 ! A121  A(16,68,29)            78.7823         calculate D2E/DX2 analytically  !
 ! A122  A(16,68,30)            83.9155         calculate D2E/DX2 analytically  !
 ! A123  A(16,68,32)            76.4425         calculate D2E/DX2 analytically  !
 ! A124  A(16,68,33)            86.1203         calculate D2E/DX2 analytically  !
 ! A125  A(16,68,35)           152.6732         calculate D2E/DX2 analytically  !
 ! A126  A(16,68,37)            73.875          calculate D2E/DX2 analytically  !
 ! A127  A(27,68,28)            89.6048         calculate D2E/DX2 analytically  !
 ! A128  A(27,68,29)           127.0822         calculate D2E/DX2 analytically  !
 ! A129  A(27,68,30)           132.1408         calculate D2E/DX2 analytically  !
 ! A130  A(27,68,32)            82.103          calculate D2E/DX2 analytically  !
 ! A131  A(27,68,33)           128.0483         calculate D2E/DX2 analytically  !
 ! A132  A(27,68,35)            60.7684         calculate D2E/DX2 analytically  !
 ! A133  A(27,68,37)            72.5451         calculate D2E/DX2 analytically  !
 ! A134  A(28,68,29)           133.5093         calculate D2E/DX2 analytically  !
 ! A135  A(28,68,30)           104.9824         calculate D2E/DX2 analytically  !
 ! A136  A(28,68,31)           100.1358         calculate D2E/DX2 analytically  !
 ! A137  A(28,68,33)            75.1602         calculate D2E/DX2 analytically  !
 ! A138  A(28,68,35)           110.6638         calculate D2E/DX2 analytically  !
 ! A139  A(28,68,37)            60.2784         calculate D2E/DX2 analytically  !
 ! A140  A(29,68,31)           101.6609         calculate D2E/DX2 analytically  !
 ! A141  A(29,68,32)           150.7779         calculate D2E/DX2 analytically  !
 ! A142  A(29,68,33)            60.1204         calculate D2E/DX2 analytically  !
 ! A143  A(29,68,35)            73.9788         calculate D2E/DX2 analytically  !
 ! A144  A(29,68,37)           148.5863         calculate D2E/DX2 analytically  !
 ! A145  A(30,68,31)           101.7595         calculate D2E/DX2 analytically  !
 ! A146  A(30,68,32)           130.4907         calculate D2E/DX2 analytically  !
 ! A147  A(30,68,35)            71.4711         calculate D2E/DX2 analytically  !
 ! A148  A(30,68,37)           153.5433         calculate D2E/DX2 analytically  !
 ! A149  A(31,68,32)           105.5148         calculate D2E/DX2 analytically  !
 ! A150  A(31,68,33)           103.1961         calculate D2E/DX2 analytically  !
 ! A151  A(31,68,37)           102.4921         calculate D2E/DX2 analytically  !
 ! A152  A(32,68,33)           102.7215         calculate D2E/DX2 analytically  !
 ! A153  A(32,68,35)           128.8233         calculate D2E/DX2 analytically  !
 ! A154  A(33,68,35)            78.5619         calculate D2E/DX2 analytically  !
 ! A155  A(33,68,37)           131.5253         calculate D2E/DX2 analytically  !
 ! A156  A(35,68,37)           132.8166         calculate D2E/DX2 analytically  !
 ! A157  A(7,69,51)             94.8392         calculate D2E/DX2 analytically  !
 ! A158  L(6,14,62,7,-1)       188.1011         calculate D2E/DX2 analytically  !
 ! A159  L(53,54,62,1,-1)      179.2176         calculate D2E/DX2 analytically  !
 ! A160  L(53,55,63,1,-1)      180.2157         calculate D2E/DX2 analytically  !
 ! A161  L(16,68,31,15,-1)     170.0998         calculate D2E/DX2 analytically  !
 ! A162  L(6,14,62,7,-2)       169.459          calculate D2E/DX2 analytically  !
 ! A163  L(53,54,62,1,-2)      181.5976         calculate D2E/DX2 analytically  !
 ! A164  L(53,55,63,1,-2)      181.5162         calculate D2E/DX2 analytically  !
 ! A165  L(16,68,31,15,-2)     176.7485         calculate D2E/DX2 analytically  !
 ! D1    D(6,1,2,3)             -0.0541         calculate D2E/DX2 analytically  !
 ! D2    D(6,1,2,10)           179.8986         calculate D2E/DX2 analytically  !
 ! D3    D(51,1,2,3)          -179.1137         calculate D2E/DX2 analytically  !
 ! D4    D(51,1,2,10)            0.839          calculate D2E/DX2 analytically  !
 ! D5    D(2,1,6,5)             -0.3944         calculate D2E/DX2 analytically  !
 ! D6    D(2,1,6,14)          -179.6017         calculate D2E/DX2 analytically  !
 ! D7    D(51,1,6,5)           178.6331         calculate D2E/DX2 analytically  !
 ! D8    D(51,1,6,14)           -0.5741         calculate D2E/DX2 analytically  !
 ! D9    D(2,1,51,52)            3.3612         calculate D2E/DX2 analytically  !
 ! D10   D(2,1,51,69)          178.2746         calculate D2E/DX2 analytically  !
 ! D11   D(6,1,51,52)         -175.6935         calculate D2E/DX2 analytically  !
 ! D12   D(6,1,51,69)           -0.7801         calculate D2E/DX2 analytically  !
 ! D13   D(1,2,3,4)              0.2344         calculate D2E/DX2 analytically  !
 ! D14   D(1,2,3,11)          -179.8835         calculate D2E/DX2 analytically  !
 ! D15   D(10,2,3,4)          -179.7173         calculate D2E/DX2 analytically  !
 ! D16   D(10,2,3,11)            0.1648         calculate D2E/DX2 analytically  !
 ! D17   D(2,3,4,5)              0.0293         calculate D2E/DX2 analytically  !
 ! D18   D(2,3,4,12)           179.9371         calculate D2E/DX2 analytically  !
 ! D19   D(11,3,4,5)          -179.8532         calculate D2E/DX2 analytically  !
 ! D20   D(11,3,4,12)            0.0546         calculate D2E/DX2 analytically  !
 ! D21   D(3,4,5,6)             -0.4847         calculate D2E/DX2 analytically  !
 ! D22   D(3,4,5,13)           179.623          calculate D2E/DX2 analytically  !
 ! D23   D(12,4,5,6)           179.6075         calculate D2E/DX2 analytically  !
 ! D24   D(12,4,5,13)           -0.2849         calculate D2E/DX2 analytically  !
 ! D25   D(4,5,6,1)              0.6537         calculate D2E/DX2 analytically  !
 ! D26   D(4,5,6,14)           179.8466         calculate D2E/DX2 analytically  !
 ! D27   D(13,5,6,1)          -179.4542         calculate D2E/DX2 analytically  !
 ! D28   D(13,5,6,14)           -0.2612         calculate D2E/DX2 analytically  !
 ! D29   D(1,6,62,54)          -43.6943         calculate D2E/DX2 analytically  !
 ! D30   D(5,6,62,54)          147.3184         calculate D2E/DX2 analytically  !
 ! D31   D(9,7,8,16)           -14.9811         calculate D2E/DX2 analytically  !
 ! D32   D(9,7,8,17)           164.1794         calculate D2E/DX2 analytically  !
 ! D33   D(69,7,8,16)          172.7827         calculate D2E/DX2 analytically  !
 ! D34   D(69,7,8,17)           -8.0568         calculate D2E/DX2 analytically  !
 ! D35   D(8,7,9,15)            -0.1382         calculate D2E/DX2 analytically  !
 ! D36   D(8,7,9,18)           179.6339         calculate D2E/DX2 analytically  !
 ! D37   D(69,7,9,15)          172.1844         calculate D2E/DX2 analytically  !
 ! D38   D(69,7,9,18)           -8.0435         calculate D2E/DX2 analytically  !
 ! D39   D(8,7,69,51)          -83.6394         calculate D2E/DX2 analytically  !
 ! D40   D(9,7,69,51)          103.7143         calculate D2E/DX2 analytically  !
 ! D41   D(7,8,16,68)           -4.4293         calculate D2E/DX2 analytically  !
 ! D42   D(17,8,16,68)         176.4471         calculate D2E/DX2 analytically  !
 ! D43   D(7,8,17,19)          179.6769         calculate D2E/DX2 analytically  !
 ! D44   D(16,8,17,19)          -1.134          calculate D2E/DX2 analytically  !
 ! D45   D(7,9,15,68)           33.2783         calculate D2E/DX2 analytically  !
 ! D46   D(18,9,15,68)        -146.4778         calculate D2E/DX2 analytically  !
 ! D47   D(7,9,18,20)          174.1364         calculate D2E/DX2 analytically  !
 ! D48   D(15,9,18,20)          -6.0849         calculate D2E/DX2 analytically  !
 ! D49   D(9,15,68,16)         -36.1079         calculate D2E/DX2 analytically  !
 ! D50   D(9,15,68,27)         176.7003         calculate D2E/DX2 analytically  !
 ! D51   D(9,15,68,28)        -100.9476         calculate D2E/DX2 analytically  !
 ! D52   D(9,15,68,29)          45.6932         calculate D2E/DX2 analytically  !
 ! D53   D(9,15,68,30)          44.4312         calculate D2E/DX2 analytically  !
 ! D54   D(9,15,68,31)         147.1435         calculate D2E/DX2 analytically  !
 ! D55   D(9,15,68,32)        -104.3865         calculate D2E/DX2 analytically  !
 ! D56   D(9,15,68,33)          36.5831         calculate D2E/DX2 analytically  !
 ! D57   D(9,15,68,35)         116.8486         calculate D2E/DX2 analytically  !
 ! D58   D(9,15,68,37)        -110.5005         calculate D2E/DX2 analytically  !
 ! D59   D(8,16,68,15)          22.2473         calculate D2E/DX2 analytically  !
 ! D60   D(8,16,68,27)          86.5938         calculate D2E/DX2 analytically  !
 ! D61   D(8,16,68,28)         171.4088         calculate D2E/DX2 analytically  !
 ! D62   D(8,16,68,29)         -52.9645         calculate D2E/DX2 analytically  !
 ! D63   D(8,16,68,30)         -83.1217         calculate D2E/DX2 analytically  !
 ! D64   D(8,16,68,32)         142.6576         calculate D2E/DX2 analytically  !
 ! D65   D(8,16,68,33)        -113.2553         calculate D2E/DX2 analytically  !
 ! D66   D(8,16,68,35)         -57.6033         calculate D2E/DX2 analytically  !
 ! D67   D(8,16,68,37)         111.4046         calculate D2E/DX2 analytically  !
 ! D68   D(8,17,19,21)         173.7484         calculate D2E/DX2 analytically  !
 ! D69   D(8,17,19,22)          53.8259         calculate D2E/DX2 analytically  !
 ! D70   D(8,17,19,23)         -66.6754         calculate D2E/DX2 analytically  !
 ! D71   D(9,18,20,24)         178.6589         calculate D2E/DX2 analytically  !
 ! D72   D(9,18,20,25)          58.9554         calculate D2E/DX2 analytically  !
 ! D73   D(9,18,20,26)         -62.3393         calculate D2E/DX2 analytically  !
 ! D74   D(29,30,41,48)        -41.8607         calculate D2E/DX2 analytically  !
 ! D75   D(29,30,41,49)       -162.5277         calculate D2E/DX2 analytically  !
 ! D76   D(29,30,41,50)         77.8145         calculate D2E/DX2 analytically  !
 ! D77   D(33,30,41,48)         69.0376         calculate D2E/DX2 analytically  !
 ! D78   D(33,30,41,49)        -51.6294         calculate D2E/DX2 analytically  !
 ! D79   D(33,30,41,50)       -171.2873         calculate D2E/DX2 analytically  !
 ! D80   D(34,30,41,48)       -166.7515         calculate D2E/DX2 analytically  !
 ! D81   D(34,30,41,49)         72.5815         calculate D2E/DX2 analytically  !
 ! D82   D(34,30,41,50)        -47.0764         calculate D2E/DX2 analytically  !
 ! D83   D(68,30,41,48)         15.6582         calculate D2E/DX2 analytically  !
 ! D84   D(68,30,41,49)       -105.0088         calculate D2E/DX2 analytically  !
 ! D85   D(68,30,41,50)        135.3333         calculate D2E/DX2 analytically  !
 ! D86   D(34,30,68,15)         99.0761         calculate D2E/DX2 analytically  !
 ! D87   D(34,30,68,16)        174.8076         calculate D2E/DX2 analytically  !
 ! D88   D(34,30,68,27)          3.1004         calculate D2E/DX2 analytically  !
 ! D89   D(34,30,68,28)       -100.3457         calculate D2E/DX2 analytically  !
 ! D90   D(34,30,68,31)          3.6466         calculate D2E/DX2 analytically  !
 ! D91   D(34,30,68,32)       -118.833          calculate D2E/DX2 analytically  !
 ! D92   D(34,30,68,35)          6.8466         calculate D2E/DX2 analytically  !
 ! D93   D(34,30,68,37)       -152.4516         calculate D2E/DX2 analytically  !
 ! D94   D(41,30,68,15)        -84.2105         calculate D2E/DX2 analytically  !
 ! D95   D(41,30,68,16)         -8.479          calculate D2E/DX2 analytically  !
 ! D96   D(41,30,68,27)        179.8139         calculate D2E/DX2 analytically  !
 ! D97   D(41,30,68,28)         76.3678         calculate D2E/DX2 analytically  !
 ! D98   D(41,30,68,31)       -179.6399         calculate D2E/DX2 analytically  !
 ! D99   D(41,30,68,32)         57.8805         calculate D2E/DX2 analytically  !
 ! D100  D(41,30,68,35)       -176.4399         calculate D2E/DX2 analytically  !
 ! D101  D(41,30,68,37)         24.2619         calculate D2E/DX2 analytically  !
 ! D102  D(27,31,40,45)         58.8137         calculate D2E/DX2 analytically  !
 ! D103  D(27,31,40,46)        -60.7249         calculate D2E/DX2 analytically  !
 ! D104  D(27,31,40,47)        178.6112         calculate D2E/DX2 analytically  !
 ! D105  D(35,31,40,45)        -50.1649         calculate D2E/DX2 analytically  !
 ! D106  D(35,31,40,46)       -169.7034         calculate D2E/DX2 analytically  !
 ! D107  D(35,31,40,47)         69.6327         calculate D2E/DX2 analytically  !
 ! D108  D(36,31,40,45)       -175.8117         calculate D2E/DX2 analytically  !
 ! D109  D(36,31,40,46)         64.6498         calculate D2E/DX2 analytically  !
 ! D110  D(36,31,40,47)        -56.0141         calculate D2E/DX2 analytically  !
 ! D111  D(68,31,40,45)          4.8581         calculate D2E/DX2 analytically  !
 ! D112  D(68,31,40,46)       -114.6804         calculate D2E/DX2 analytically  !
 ! D113  D(68,31,40,47)        124.6557         calculate D2E/DX2 analytically  !
 ! D114  D(36,31,68,15)        -10.4331         calculate D2E/DX2 analytically  !
 ! D115  D(36,31,68,28)       -158.2344         calculate D2E/DX2 analytically  !
 ! D116  D(36,31,68,29)         63.0867         calculate D2E/DX2 analytically  !
 ! D117  D(36,31,68,30)         93.9793         calculate D2E/DX2 analytically  !
 ! D118  D(36,31,68,32)       -127.7656         calculate D2E/DX2 analytically  !
 ! D119  D(36,31,68,33)        124.787          calculate D2E/DX2 analytically  !
 ! D120  D(36,31,68,37)        -96.6753         calculate D2E/DX2 analytically  !
 ! D121  D(40,31,68,15)        168.4738         calculate D2E/DX2 analytically  !
 ! D122  D(40,31,68,28)         20.6726         calculate D2E/DX2 analytically  !
 ! D123  D(40,31,68,29)       -118.0063         calculate D2E/DX2 analytically  !
 ! D124  D(40,31,68,30)        -87.1137         calculate D2E/DX2 analytically  !
 ! D125  D(40,31,68,32)         51.1414         calculate D2E/DX2 analytically  !
 ! D126  D(40,31,68,33)        -56.306          calculate D2E/DX2 analytically  !
 ! D127  D(40,31,68,37)         82.2316         calculate D2E/DX2 analytically  !
 ! D128  D(28,32,39,42)        166.5876         calculate D2E/DX2 analytically  !
 ! D129  D(28,32,39,43)         46.5744         calculate D2E/DX2 analytically  !
 ! D130  D(28,32,39,44)        -74.2294         calculate D2E/DX2 analytically  !
 ! D131  D(37,32,39,42)         55.122          calculate D2E/DX2 analytically  !
 ! D132  D(37,32,39,43)        -64.8912         calculate D2E/DX2 analytically  !
 ! D133  D(37,32,39,44)        174.3049         calculate D2E/DX2 analytically  !
 ! D134  D(38,32,39,42)        -70.0            calculate D2E/DX2 analytically  !
 ! D135  D(38,32,39,43)        169.9868         calculate D2E/DX2 analytically  !
 ! D136  D(38,32,39,44)         49.183          calculate D2E/DX2 analytically  !
 ! D137  D(68,32,39,42)        113.8063         calculate D2E/DX2 analytically  !
 ! D138  D(68,32,39,43)         -6.2069         calculate D2E/DX2 analytically  !
 ! D139  D(68,32,39,44)       -127.0107         calculate D2E/DX2 analytically  !
 ! D140  D(38,32,68,15)         85.6805         calculate D2E/DX2 analytically  !
 ! D141  D(38,32,68,16)         16.6734         calculate D2E/DX2 analytically  !
 ! D142  D(38,32,68,27)        166.5579         calculate D2E/DX2 analytically  !
 ! D143  D(38,32,68,29)        -16.0827         calculate D2E/DX2 analytically  !
 ! D144  D(38,32,68,30)        -52.8849         calculate D2E/DX2 analytically  !
 ! D145  D(38,32,68,31)       -173.8914         calculate D2E/DX2 analytically  !
 ! D146  D(38,32,68,33)        -66.1002         calculate D2E/DX2 analytically  !
 ! D147  D(38,32,68,35)       -151.5526         calculate D2E/DX2 analytically  !
 ! D148  D(39,32,68,15)        -99.4687         calculate D2E/DX2 analytically  !
 ! D149  D(39,32,68,16)       -168.4758         calculate D2E/DX2 analytically  !
 ! D150  D(39,32,68,27)        -18.5914         calculate D2E/DX2 analytically  !
 ! D151  D(39,32,68,29)        158.7681         calculate D2E/DX2 analytically  !
 ! D152  D(39,32,68,30)        121.9658         calculate D2E/DX2 analytically  !
 ! D153  D(39,32,68,31)          0.9594         calculate D2E/DX2 analytically  !
 ! D154  D(39,32,68,33)        108.7506         calculate D2E/DX2 analytically  !
 ! D155  D(39,32,68,35)         23.2981         calculate D2E/DX2 analytically  !
 ! D156  D(1,51,69,7)          123.4927         calculate D2E/DX2 analytically  !
 ! D157  D(52,51,69,7)         -61.44           calculate D2E/DX2 analytically  !
 ! D158  D(55,53,62,14)         89.7162         calculate D2E/DX2 analytically  !
 ! D159  D(64,53,62,14)        -86.2372         calculate D2E/DX2 analytically  !
 ! D160  D(54,53,64,65)         -7.5534         calculate D2E/DX2 analytically  !
 ! D161  D(54,53,64,66)        172.2882         calculate D2E/DX2 analytically  !
 ! D162  D(55,53,64,65)        176.1476         calculate D2E/DX2 analytically  !
 ! D163  D(55,53,64,66)         -4.0109         calculate D2E/DX2 analytically  !
 ! D164  D(59,56,58,57)       -178.056          calculate D2E/DX2 analytically  !
 ! D165  D(59,56,58,61)          0.96           calculate D2E/DX2 analytically  !
 ! D166  D(66,56,58,57)          0.605          calculate D2E/DX2 analytically  !
 ! D167  D(66,56,58,61)        179.6211         calculate D2E/DX2 analytically  !
 ! D168  D(58,56,66,64)          1.3712         calculate D2E/DX2 analytically  !
 ! D169  D(58,56,66,67)       -178.6778         calculate D2E/DX2 analytically  !
 ! D170  D(59,56,66,64)       -179.9178         calculate D2E/DX2 analytically  !
 ! D171  D(59,56,66,67)          0.0332         calculate D2E/DX2 analytically  !
 ! D172  D(60,57,58,56)        178.6375         calculate D2E/DX2 analytically  !
 ! D173  D(60,57,58,61)         -0.392          calculate D2E/DX2 analytically  !
 ! D174  D(65,57,58,56)         -1.3842         calculate D2E/DX2 analytically  !
 ! D175  D(65,57,58,61)        179.5863         calculate D2E/DX2 analytically  !
 ! D176  D(58,57,65,64)          0.0848         calculate D2E/DX2 analytically  !
 ! D177  D(60,57,65,64)       -179.9355         calculate D2E/DX2 analytically  !
 ! D178  D(53,64,65,57)       -178.0876         calculate D2E/DX2 analytically  !
 ! D179  D(66,64,65,57)          2.0717         calculate D2E/DX2 analytically  !
 ! D180  D(53,64,66,56)        177.3498         calculate D2E/DX2 analytically  !
 ! D181  D(53,64,66,67)         -2.6043         calculate D2E/DX2 analytically  !
 ! D182  D(65,64,66,56)         -2.8201         calculate D2E/DX2 analytically  !
 ! D183  D(65,64,66,67)        177.2258         calculate D2E/DX2 analytically  !
 --------------------------------------------------------------------------------
 Trust Radius=3.00D-01 FncErr=1.00D-07 GrdErr=1.00D-06 EigMax=2.50D+02 EigMin=1.00D-04
 Number of steps in this run=    414 maximum allowed number of steps=    414.
 Search for a saddle point of order  1.
 GradGradGradGradGradGradGradGradGradGradGradGradGradGradGradGradGradGrad

 Leave Link  103 at Fri May  2 09:30:38 2025, MaxMem= 12348030976 cpu:               1.8 elap:               0.1
 (Enter /sysapps/ubuntu-applications/gaussian-new/avx/g16/l202.exe)
 Stoichiometry    C22H16F9LuN4O14S3
 Framework group  C1[X(C22H16F9LuN4O14S3)]
 Deg. of freedom   201
 Full point group                 C1      NOp   1
 Largest Abelian subgroup         C1      NOp   1
 Largest concise Abelian subgroup C1      NOp   1
                         Standard orientation:                         
 ---------------------------------------------------------------------
 Center     Atomic      Atomic             Coordinates (Angstroms)
 Number     Number       Type             X           Y           Z
 ---------------------------------------------------------------------
      1          6           0        4.708222   -1.608881    0.291334
      2          6           0        4.888803   -2.942958   -0.151896
      3          6           0        5.920935   -3.237155   -1.028490
      4          6           0        6.772669   -2.209108   -1.458215
      5          6           0        6.604144   -0.886662   -1.019812
      6          6           0        5.570877   -0.574150   -0.150425
      7          6           0        2.100319   -0.077168    1.252645
      8          6           0        1.840111    0.336432   -0.086563
      9          6           0        1.063888   -0.278390    2.222561
     10          1           0        4.210718   -3.720932    0.205522
     11          1           0        6.072748   -4.258439   -1.380921
     12          1           0        7.586468   -2.443300   -2.148541
     13          1           0        7.284842   -0.106815   -1.364882
     14          1           0        5.418396    0.445977    0.208291
     15          8           0       -0.156174   -0.110633    1.993382
     16          8           0        0.705479    0.300959   -0.615674
     17          8           0        2.877934    0.788568   -0.760607
     18          8           0        1.493661   -0.664928    3.395909
     19          6           0        2.649107    1.204567   -2.110111
     20          6           0        0.535566   -0.763211    4.452824
     21          1           0        3.589104    1.646684   -2.456458
     22          1           0        1.835097    1.943596   -2.147961
     23          1           0        2.379556    0.341686   -2.734341
     24          1           0        1.084448   -1.120269    5.329895
     25          1           0       -0.260108   -1.471189    4.184964
     26          1           0        0.105509    0.227860    4.651340
     27          8           0       -3.150688    0.126335    1.320813
     28          8           0       -2.167317    0.514240   -1.770757
     29          8           0        0.167492   -2.394396    0.454085
     30         16           0       -0.218903   -3.066585   -0.818938
     31         16           0       -3.691410   -1.253893    1.520582
     32         16           0       -1.968434    1.954141   -1.412008
     33          8           0       -1.055736   -2.075927   -1.564111
     34          8           0       -0.691536   -4.425599   -0.754892
     35          8           0       -2.657458   -2.159390    0.930529
     36          8           0       -4.234504   -1.591557    2.808174
     37          8           0       -1.470421    1.966040   -0.010868
     38          8           0       -1.287783    2.775769   -2.386425
     39          6           0       -3.667563    2.652966   -1.304409
     40          6           0       -5.073320   -1.333335    0.309396
     41          6           0        1.350049   -3.163621   -1.784301
     42          9           0       -3.588678    3.834042   -0.712662
     43          9           0       -4.450778    1.857062   -0.604179
     44          9           0       -4.156813    2.799952   -2.520685
     45          9           0       -4.582479   -1.115180   -0.900651
     46          9           0       -5.964578   -0.406113    0.599629
     47          9           0       -5.635011   -2.524861    0.352711
     48          9           0        2.036756   -2.034618   -1.680263
     49          9           0        1.071921   -3.390498   -3.052367
     50          9           0        2.078837   -4.156771   -1.304582
     51          6           0        3.656823   -1.350147    1.199984
     52          1           0        3.041678   -2.174360    1.586955
     53          6           0        3.034549    3.117484    1.574055
     54          6           0        4.411952    2.871072    1.415546
     55          6           0        2.328972    2.708100    2.718604
     56          6           0        0.362764    4.510032   -0.529228
     57          6           0        2.509874    4.761740   -1.504260
     58          6           0        1.132374    4.990828   -1.579943
     59          1           0       -0.722227    4.609151   -0.507439
     60          1           0        3.188862    5.085398   -2.296549
     61          1           0        0.694838    5.507440   -2.433572
     62          7           0        5.551915    2.644160    1.311020
     63          7           0        1.717649    2.368141    3.654445
     64          7           0        2.341333    3.721830    0.513918
     65          7           0        3.098349    4.147617   -0.490030
     66          6           0        0.992451    3.855909    0.518264
     67          1           0        0.456838    3.432104    1.367976
     68         71           0       -1.249925   -0.461973    0.104366
     69          8           0        3.430698   -0.140547    1.696461
 ---------------------------------------------------------------------
 Rotational constants (GHZ):           0.0671840           0.0431484           0.0344806
 Leave Link  202 at Fri May  2 09:30:39 2025, MaxMem= 12348030976 cpu:               3.5 elap:               0.2
 (Enter /sysapps/ubuntu-applications/gaussian-new/avx/g16/l301.exe)
 General basis read from cards:  (5D, 7F)
 Centers:      10     11     12     13     14     21     22     23     24     25
 Centers:      26     52     59     60     61     67
 S 3 1.00
     Exponent=  1.3010701000D+01 Coefficients=  1.9682158000D-02
     Exponent=  1.9622572000D+00 Coefficients=  1.3796524000D-01
     Exponent=  4.4453796000D-01 Coefficients=  4.7831935000D-01
 S 1 1.00
     Exponent=  1.2194962000D-01 Coefficients=  1.0000000000D+00
 P 1 1.00
     Exponent=  8.0000000000D-01 Coefficients=  1.0000000000D+00
 ****
 Centers:       1      2      3      4      5      6      7      8      9     19
 Centers:      20     39     40     41     51     53     54     55     56     57
 Centers:      58     66
 S 5 1.00
     Exponent=  1.2384016938D+03 Coefficients=  5.4568832082D-03
     Exponent=  1.8629004992D+02 Coefficients=  4.0638409211D-02
     Exponent=  4.2251176346D+01 Coefficients=  1.8025593888D-01
     Exponent=  1.1676557932D+01 Coefficients=  4.6315121755D-01
     Exponent=  3.5930506482D+00 Coefficients=  4.4087173314D-01
 S 1 1.00
     Exponent=  4.0245147363D-01 Coefficients=  1.0000000000D+00
 S 1 1.00
     Exponent=  1.3090182668D-01 Coefficients=  1.0000000000D+00
 P 3 1.00
     Exponent=  9.4680970621D+00 Coefficients=  3.8387871728D-02
     Exponent=  2.0103545142D+00 Coefficients=  2.1117025112D-01
     Exponent=  5.4771004707D-01 Coefficients=  5.1328172114D-01
 P 1 1.00
     Exponent=  1.5268613795D-01 Coefficients=  1.0000000000D+00
 D 1 1.00
     Exponent=  8.0000000000D-01 Coefficients=  1.0000000000D+00
 ****
 Centers:      62     63     64     65
 S 5 1.00
     Exponent=  1.7128415853D+03 Coefficients= -5.3934125305D-03
     Exponent=  2.5764812677D+02 Coefficients= -4.0221581118D-02
     Exponent=  5.8458245853D+01 Coefficients= -1.7931144990D-01
     Exponent=  1.6198367905D+01 Coefficients= -4.6376317823D-01
     Exponent=  5.0052600809D+00 Coefficients= -4.4171422662D-01
 S 1 1.00
     Exponent=  5.8731856571D-01 Coefficients=  1.0000000000D+00
 S 1 1.00
     Exponent=  1.8764592253D-01 Coefficients=  1.0000000000D+00
 P 3 1.00
     Exponent=  1.3571470233D+01 Coefficients= -4.0072398852D-02
     Exponent=  2.9257372874D+00 Coefficients= -2.1807045028D-01
     Exponent=  7.9927750754D-01 Coefficients= -5.1294466049D-01
 P 1 1.00
     Exponent=  2.1954348034D-01 Coefficients=  1.0000000000D+00
 D 1 1.00
     Exponent=  1.0000000000D+00 Coefficients=  1.0000000000D+00
 ****
 Centers:      15     16     17     18     27     28     29     33     34     35
 Centers:      36     37     38     69
 S 5 1.00
     Exponent=  2.2661767785D+03 Coefficients= -5.3431809926D-03
     Exponent=  3.4087010191D+02 Coefficients= -3.9890039230D-02
     Exponent=  7.7363135167D+01 Coefficients= -1.7853911985D-01
     Exponent=  2.1479644940D+01 Coefficients= -4.6427684959D-01
     Exponent=  6.6589433124D+00 Coefficients= -4.4309745172D-01
 S 1 1.00
     Exponent=  8.0975975668D-01 Coefficients=  1.0000000000D+00
 S 1 1.00
     Exponent=  2.5530772234D-01 Coefficients=  1.0000000000D+00
 P 3 1.00
     Exponent=  1.7721504317D+01 Coefficients=  4.3394573193D-02
     Exponent=  3.8635505440D+00 Coefficients=  2.3094120765D-01
     Exponent=  1.0480920883D+00 Coefficients=  5.1375311064D-01
 P 1 1.00
     Exponent=  2.7641544411D-01 Coefficients=  1.0000000000D+00
 D 1 1.00
     Exponent=  1.2000000000D+00 Coefficients=  1.0000000000D+00
 ****
 Centers:      42     43     44     45     46     47     48     49     50
 S 5 1.00
     Exponent=  2.8948325990D+03 Coefficients= -5.3408255515D-03
     Exponent=  4.3541939120D+02 Coefficients= -3.9904258866D-02
     Exponent=  9.8843328866D+01 Coefficients= -1.7912768038D-01
     Exponent=  2.7485198001D+01 Coefficients= -4.6758090825D-01
     Exponent=  8.5405498171D+00 Coefficients= -4.4653131020D-01
 S 1 1.00
     Exponent=  1.0654578038D+00 Coefficients=  1.0000000000D+00
 S 1 1.00
     Exponent=  3.3247346748D-01 Coefficients=  1.0000000000D+00
 P 3 1.00
     Exponent=  2.2696633924D+01 Coefficients= -4.5212874436D-02
     Exponent=  4.9872339257D+00 Coefficients= -2.3754317067D-01
     Exponent=  1.3491613954D+00 Coefficients= -5.1287353587D-01
 P 1 1.00
     Exponent=  3.4829881977D-01 Coefficients=  1.0000000000D+00
 D 1 1.00
     Exponent=  1.4000000000D+00 Coefficients=  1.0000000000D+00
 ****
 Centers:      30     31     32
 S 5 1.00
     Exponent=  9.1849303010D+03 Coefficients= -2.2294387756D-03
     Exponent=  1.3815105503D+03 Coefficients= -1.6683029937D-02
     Exponent=  3.1387147580D+02 Coefficients= -7.5262436116D-02
     Exponent=  8.8053870623D+01 Coefficients= -1.9376827038D-01
     Exponent=  2.7039914905D+01 Coefficients= -1.7718020803D-01
 S 3 1.00
     Exponent=  4.5648731303D+01 Coefficients= -1.0736062573D-01
     Exponent=  4.9664522326D+00 Coefficients=  6.5066293018D-01
     Exponent=  2.0116242047D+00 Coefficients=  5.9712155354D-01
 S 1 1.00
     Exponent=  3.5661077013D-01 Coefficients=  1.0000000000D+00
 S 1 1.00
     Exponent=  1.3507221477D-01 Coefficients=  1.0000000000D+00
 P 5 1.00
     Exponent=  2.6198233439D+02 Coefficients= -9.2729929822D-03
     Exponent=  6.1306894736D+01 Coefficients= -6.6547669241D-02
     Exponent=  1.9103729887D+01 Coefficients= -2.4828595903D-01
     Exponent=  6.6567720378D+00 Coefficients= -4.8703847402D-01
     Exponent=  2.3959635161D+00 Coefficients= -3.9337850312D-01
 P 1 1.00
     Exponent=  6.1776161679D-01 Coefficients=  1.0000000000D+00
 P 1 1.00
     Exponent=  1.6993376871D-01 Coefficients=  1.0000000000D+00
 D 1 1.00
     Exponent=  5.5000000000D-01 Coefficients=  1.0000000000D+00
 ****
 Centers:      68
 S 5 1.00
     Exponent=  9.5169767000D+04 Coefficients=  2.2000000000D-05
     Exponent=  1.5488403000D+04 Coefficients=  1.4500000000D-04
     Exponent=  3.7762335000D+03 Coefficients=  6.5100000000D-04
     Exponent=  1.0790501000D+03 Coefficients=  2.0380000000D-03
     Exponent=  2.6895380000D+02 Coefficients=  5.1270000000D-03
 S 1 1.00
     Exponent=  6.3467900000D+01 Coefficients=  1.0000000000D+00
 S 1 1.00
     Exponent=  4.5133200000D+01 Coefficients=  1.0000000000D+00
 S 1 1.00
     Exponent=  2.1456800000D+01 Coefficients=  1.0000000000D+00
 S 1 1.00
     Exponent=  5.3483000000D+00 Coefficients=  1.0000000000D+00
 S 1 1.00
     Exponent=  2.6778000000D+00 Coefficients=  1.0000000000D+00
 S 1 1.00
     Exponent=  1.0287000000D+00 Coefficients=  1.0000000000D+00
 S 1 1.00
     Exponent=  4.4080000000D-01 Coefficients=  1.0000000000D+00
 S 1 1.00
     Exponent=  7.9100000000D-02 Coefficients=  1.0000000000D+00
 S 1 1.00
     Exponent=  3.1300000000D-02 Coefficients=  1.0000000000D+00
 P 3 1.00
     Exponent=  1.2333733920D+01 Coefficients= -1.5313031066D-01
     Exponent=  1.1080331415D+01 Coefficients= -2.0300664852D-01
     Exponent=  2.0341747228D+00 Coefficients= -1.9458361263D-01
 P 6 1.00
     Exponent=  1.5005317313D+03 Coefficients= -1.0192569555D-03
     Exponent=  3.8239748937D+02 Coefficients= -5.9476212135D-03
     Exponent=  1.3299969628D+02 Coefficients= -1.6265160929D-02
     Exponent=  4.6110032419D+01 Coefficients= -3.5623845839D-02
     Exponent=  1.5583529011D+01 Coefficients=  2.3709171074D-01
     Exponent=  5.7856677022D+00 Coefficients= -3.0670977844D-01
 P 1 1.00
     Exponent=  3.7823361008D+00 Coefficients=  1.0000000000D+00
 P 1 1.00
     Exponent=  1.3682592248D+00 Coefficients=  1.0000000000D+00
 P 1 1.00
     Exponent=  5.7288205601D-01 Coefficients=  1.0000000000D+00
 P 1 1.00
     Exponent=  2.2793165135D-01 Coefficients=  1.0000000000D+00
 P 1 1.00
     Exponent=  8.1403917986D-02 Coefficients=  1.0000000000D+00
 P 1 1.00
     Exponent=  2.9091071778D-02 Coefficients=  1.0000000000D+00
 D 6 1.00
     Exponent=  4.8452750000D+02 Coefficients=  2.2860000000D-03
     Exponent=  1.4666550000D+02 Coefficients=  1.8629000000D-02
     Exponent=  5.6377900000D+01 Coefficients=  7.4088000000D-02
     Exponent=  2.3671100000D+01 Coefficients=  1.6155400000D-01
     Exponent=  9.4401000000D+00 Coefficients=  3.0809100000D-01
     Exponent=  4.3712000000D+00 Coefficients=  4.4833400000D-01
 D 1 1.00
     Exponent=  1.9580000000D+00 Coefficients=  1.0000000000D+00
 D 1 1.00
     Exponent=  7.2720000000D-01 Coefficients=  1.0000000000D+00
 D 1 1.00
     Exponent=  2.4600000000D-01 Coefficients=  1.0000000000D+00
 D 1 1.00
     Exponent=  7.4400000000D-02 Coefficients=  1.0000000000D+00
 F 5 1.00
     Exponent=  1.7515590000D+02 Coefficients=  4.1020000000D-03
     Exponent=  6.2890900000D+01 Coefficients=  3.9086000000D-02
     Exponent=  2.8362400000D+01 Coefficients=  1.4704400000D-01
     Exponent=  1.3247800000D+01 Coefficients=  2.7109200000D-01
     Exponent=  6.1440000000D+00 Coefficients=  3.4566500000D-01
 F 1 1.00
     Exponent=  2.7623000000D+00 Coefficients=  1.0000000000D+00
 F 1 1.00
     Exponent=  1.1574000000D+00 Coefficients=  1.0000000000D+00
 F 1 1.00
     Exponent=  4.2440000000D-01 Coefficients=  1.0000000000D+00
 G 1 1.00
     Exponent=  7.0090000000D-01 Coefficients=  1.0000000000D+00
 ****
 ======================================================================================================
                                       Pseudopotential Parameters
 ======================================================================================================
  Center     Atomic      Valence      Angular      Power
  Number     Number     Electrons     Momentum     of R      Exponent        Coefficient   SO-Coeffient
 ======================================================================================================
    1          6
                                   No pseudopotential on this center.
    2          6
                                   No pseudopotential on this center.
    3          6
                                   No pseudopotential on this center.
    4          6
                                   No pseudopotential on this center.
    5          6
                                   No pseudopotential on this center.
    6          6
                                   No pseudopotential on this center.
    7          6
                                   No pseudopotential on this center.
    8          6
                                   No pseudopotential on this center.
    9          6
                                   No pseudopotential on this center.
   10          1
                                   No pseudopotential on this center.
   11          1
                                   No pseudopotential on this center.
   12          1
                                   No pseudopotential on this center.
   13          1
                                   No pseudopotential on this center.
   14          1
                                   No pseudopotential on this center.
   15          8
                                   No pseudopotential on this center.
   16          8
                                   No pseudopotential on this center.
   17          8
                                   No pseudopotential on this center.
   18          8
                                   No pseudopotential on this center.
   19          6
                                   No pseudopotential on this center.
   20          6
                                   No pseudopotential on this center.
   21          1
                                   No pseudopotential on this center.
   22          1
                                   No pseudopotential on this center.
   23          1
                                   No pseudopotential on this center.
   24          1
                                   No pseudopotential on this center.
   25          1
                                   No pseudopotential on this center.
   26          1
                                   No pseudopotential on this center.
   27          8
                                   No pseudopotential on this center.
   28          8
                                   No pseudopotential on this center.
   29          8
                                   No pseudopotential on this center.
   30         16
                                   No pseudopotential on this center.
   31         16
                                   No pseudopotential on this center.
   32         16
                                   No pseudopotential on this center.
   33          8
                                   No pseudopotential on this center.
   34          8
                                   No pseudopotential on this center.
   35          8
                                   No pseudopotential on this center.
   36          8
                                   No pseudopotential on this center.
   37          8
                                   No pseudopotential on this center.
   38          8
                                   No pseudopotential on this center.
   39          6
                                   No pseudopotential on this center.
   40          6
                                   No pseudopotential on this center.
   41          6
                                   No pseudopotential on this center.
   42          9
                                   No pseudopotential on this center.
   43          9
                                   No pseudopotential on this center.
   44          9
                                   No pseudopotential on this center.
   45          9
                                   No pseudopotential on this center.
   46          9
                                   No pseudopotential on this center.
   47          9
                                   No pseudopotential on this center.
   48          9
                                   No pseudopotential on this center.
   49          9
                                   No pseudopotential on this center.
   50          9
                                   No pseudopotential on this center.
   51          6
                                   No pseudopotential on this center.
   52          1
                                   No pseudopotential on this center.
   53          6
                                   No pseudopotential on this center.
   54          6
                                   No pseudopotential on this center.
   55          6
                                   No pseudopotential on this center.
   56          6
                                   No pseudopotential on this center.
   57          6
                                   No pseudopotential on this center.
   58          6
                                   No pseudopotential on this center.
   59          1
                                   No pseudopotential on this center.
   60          1
                                   No pseudopotential on this center.
   61          1
                                   No pseudopotential on this center.
   62          7
                                   No pseudopotential on this center.
   63          7
                                   No pseudopotential on this center.
   64          7
                                   No pseudopotential on this center.
   65          7
                                   No pseudopotential on this center.
   66          6
                                   No pseudopotential on this center.
   67          1
                                   No pseudopotential on this center.
   68         71           43
                                      H and up 
                                                     2        1.0000000        0.00000000    0.00000000
                                      S - H
                                                     2       35.1620970      989.99558400    0.00000000
                                      P - H
                                                     2       19.4644020      278.86565200    0.00000000
                                      D - H
                                                     2       10.0068650       71.00917800    0.00000000
                                      F - H
                                                     2       23.5179320      -47.40589000    0.00000000
                                      G - H
                                                     2       29.4122380      -35.55714600    0.00000000
   69          8
                                   No pseudopotential on this center.
 ======================================================================================================
 Ernie: Thresh=  0.10000D-02 Tol=  0.10000D-05 Strict=F.
 There are   991 symmetry adapted cartesian basis functions of A   symmetry.
 There are   916 symmetry adapted basis functions of A   symmetry.
   916 basis functions,  1662 primitive gaussians,   991 cartesian basis functions
   230 alpha electrons      230 beta electrons
       nuclear repulsion energy     11871.2802203619 Hartrees.
 IExCor= 7252 DFT=T Ex+Corr=MN15 ExCW=0 ScaHFX=  0.440000
 ScaDFX=  1.000000  1.000000  1.000000  1.000000 ScalE2=  1.000000  1.000000
 IRadAn=      5 IRanWt=     -1 IRanGd=            0 ICorTp=0 IEmpDi=  4
 NAtoms=   69 NActive=   69 NUniq=   69 SFac= 1.00D+00 NAtFMM=   60 NAOKFM=T Big=T
 Integral buffers will be    131072 words long.
 Raffenetti 2 integral format.
 Two-electron integral symmetry is turned on.
 Force inversion solution in PCM.
 ------------------------------------------------------------------------------
 Polarizable Continuum Model (PCM)
 =================================
 Model                : PCM.
 Atomic radii         : SMD-Coulomb.
 Polarization charges : Total charges.
 Charge compensation  : None.
 Solution method      : Matrix inversion.
 Cavity type          : VdW (van der Waals Surface) (Alpha=1.000).
 Cavity algorithm     : GePol (No added spheres)
                        Default sphere list used, NSphG=   69.
                        Lebedev-Laikov grids with approx.  5.0 points / Ang**2.
                        Smoothing algorithm: York/Karplus (Gamma=1.0000).
                        Polarization charges: spherical gaussians, with
                                              point-specific exponents (IZeta= 3).
                        Self-potential: point-specific (ISelfS= 7).
                        Self-field    : sphere-specific E.n sum rule (ISelfD= 2).
 1st derivatives      : Analytical E(r).r(x)/FMM algorithm (CHGder, D1EAlg=3).
                        Cavity 1st derivative terms included.
 2nd derivatives      : Analytical E(r).r(xy)/FMM algorithm (CHGder, D2EAlg=3).
                        Cavity 2nd derivative terms included.
 Solvent              : DiChloroEthane, Eps=  10.125000 Eps(inf)=   2.087447
 ------------------------------------------------------------------------------
 GePol: Number of generator spheres                  =      69
 GePol: Total number of spheres                      =      69
 GePol: Number of exposed spheres                    =      68 ( 98.55%)
 GePol: Number of points                             =    4982
 GePol: Average weight of points                     =       0.13
 GePol: Minimum weight of points                     =   0.89D-11
 GePol: Maximum weight of points                     =    0.21501
 GePol: Number of points with low weight             =     297
 GePol: Fraction of low-weight points (<1% of avg)   =       5.96%
 GePol: Cavity surface area                          =    631.685 Ang**2
 GePol: Cavity volume                                =    781.043 Ang**3
 ------------------------------------------------------------------------------
 Atomic radii for non-electrostatic terms: SMD-CDS.
 ------------------------------------------------------------------------------
 PCM non-electrostatic energy =         0.0047443704 Hartrees.
 Nuclear repulsion after PCM non-electrostatic terms =    11871.2849647323 Hartrees.
 Leave Link  301 at Fri May  2 09:30:39 2025, MaxMem= 12348030976 cpu:               6.4 elap:               0.4
 (Enter /sysapps/ubuntu-applications/gaussian-new/avx/g16/l302.exe)
 NPDir=0 NMtPBC=     1 NCelOv=     1 NCel=       1 NClECP=     1 NCelD=      1
         NCelK=      1 NCelE2=     1 NClLst=     1 CellRange=     0.0.
 One-electron integrals computed using PRISM.
 One-electron integral symmetry used in STVInt
   1 Symmetry operations used in ECPInt.
 ECPInt:  NShTT=   77815 NPrTT=  297642 LenC2=   61019 LenP2D=  141053.
 LDataN:  DoStor=T MaxTD1= 9 Len=  602
 NBasis=   916 RedAO= T EigKep=  2.93D-04  NBF=   916
 NBsUse=   916 1.00D-06 EigRej= -1.00D+00 NBFU=   916
 Precomputing XC quadrature grid using
 IXCGrd= 4 IRadAn=           5 IRanWt=          -1 IRanGd=           0 AccXCQ= 0.00D+00.
 Defaulting to unpruned grid for atomic number  71.
 Generated NRdTot=       0 NPtTot=           0 NUsed=           0 NTot=          32
 NSgBfM=   944   939   941   941   944 MxSgAt=    69 MxSgA2=    69.
 Leave Link  302 at Fri May  2 09:30:51 2025, MaxMem= 12348030976 cpu:             274.3 elap:              12.4
 (Enter /sysapps/ubuntu-applications/gaussian-new/avx/g16/l303.exe)
 DipDrv:  MaxL=1.
 Leave Link  303 at Fri May  2 09:30:52 2025, MaxMem= 12348030976 cpu:              15.4 elap:               0.9
 (Enter /sysapps/ubuntu-applications/gaussian-new/avx/g16/l401.exe)
 ExpMin= 2.91D-02 ExpMax= 9.52D+04 ExpMxC= 1.55D+04 IAcc=3 IRadAn=         5 AccDes= 0.00D+00
[...]
 24,-0.00038304,-0.00023602,0.00013413,-0.00006088,0.00019010,0.0000640
 3,-0.00002071,-0.00024880,0.00034833,0.00360135,0.00412399,-0.00493050
 ,0.00199208,0.00606308,0.00259473,-0.05919114,-0.08968676,0.10367938,0
 .05758568,0.07932278,-0.00005638,0.00002173,0.00005783,0.00000655,-0.0
 0002876,-0.00001083,-0.00001073,-0.00000538,0.00000590,-0.00000460,-0.
 00000765,0.00000206,-0.00001208,0.00003002,0.00001251,0.00003073,0.000
 01309,-0.00001605,-0.00002042,0.00008008,-0.00010549,0.00035846,-0.000
 29861,0.00017278,0.00002155,-0.00008689,0.00023467,0.00000040,0.000000
 48,0.00000025,-0.00000065,0.00000154,0.00000130,-0.00000032,0.00000087
 ,0.00000116,-0.00000034,-0.00000177,0.00000069,0.00000479,-0.00001632,
 -0.00001109,-0.00003407,0.00000081,-0.00012397,-0.00023945,0.00024955,
 -0.00001933,-0.00003076,-0.00001926,0.00002994,-0.00001016,0.00003142,
 -0.00014914,0.00000147,0.00000525,-0.00007072,-0.00004186,0.00000771,0
 .00004867,-0.00000175,0.00000072,-0.00000247,0.00002025,0.00001422,-0.
 00002083,0.00000612,0.00000004,0.00000452,0.00000357,-0.00000156,-0.00
 000569,0.00000593,-0.00000151,-0.00000753,0.00001008,-0.00000150,-0.00
 000030,0.00009741,0.00006895,-0.00008056,0.00011690,0.00028810,0.00032
 786,-0.00002270,0.00007013,0.00000943,0.00000983,-0.00011563,-0.000017
 72,-0.00009287,-0.00005594,0.00008578,-0.00052753,-0.00005557,-0.00141
 924,-0.00002570,0.00007778,0.00001585,0.00000676,0.00004276,0.00000028
 ,0.00005912,0.00003252,-0.00002855,0.00002443,0.00001625,-0.00004606,0
 .00097953,0.00045566,0.00097377,0.00003670,-0.00010723,0.00025050,-0.0
 0030434,0.00014712,0.00011753,-0.00005286,-0.00001227,0.00001165,0.000
 01326,-0.00003316,-0.00002613,0.00007307,-0.00008281,-0.00003774,0.000
 10196,0.00000505,-0.00004192,0.00015857,-0.00006325,0.00010307,0.00001
 796,0.00001124,-0.00001493,0.00002102,-0.00000765,-0.00000339,0.000018
 51,0.00001490,0.00000193,0.00000012,0.00001982,0.00000455,-0.00000251,
 0.00000714,0.00001757,-0.00001522,0.00001597,-0.00000016,0.00014692,-0
 .00007468,-0.00003100,-0.00000588,0.00000004,-0.00000294,-0.00203491,0
 .00008352,-0.00215271,0.00081108,-0.00053406,-0.00041865,-0.00358210,0
 .00032525,0.00041703,0.01023535,0.00634500,-0.00745442,-0.00078992,-0.
 00021506,-0.00019122,-0.00176197,0.00422820,-0.00017049,0.00015842,-0.
 00192861,-0.00018665,-0.00002934,-0.00061774,-0.00029620,0.00052450,-0
 .00001219,-0.00033539,-0.00036838,0.00015302,0.00010877,0.00053390,0.0
 0037125,-0.00128499,0.00020849,-0.00231411,0.00558790,-0.00154458,0.00
 293501,0.00316881,0.12062982,0.10254823,-0.24179929,-0.12368670,-0.111
 39162,0.24475711,0.00466905,-0.00143669,-0.00501086,-0.00065894,0.0027
 7795,0.00110576,0.00130302,0.00075979,-0.00076042,0.00022120,0.0001288
 7,-0.00019621,0.00082564,-0.00171260,-0.00087338,-0.00214050,-0.001621
 07,0.00140874,0.00547030,-0.00784726,0.00392729,-0.04921250,-0.0067482
 6,-0.01432510,-0.02287063,0.00410363,-0.01904601,-0.00006105,0.0000628
 1,-0.00000041,0.00006379,-0.00010984,-0.00008508,0.00002956,-0.0000152
 6,-0.00003548,0.00011012,0.00006026,-0.00008324,-0.00035724,-0.0003051
 8,-0.00009288,-0.01449211,-0.00623085,-0.01896809,-0.02766425,-0.01328
 942,0.01941614,0.01217146,0.00536206,-0.00690672,0.00269016,-0.0033216
 3,0.01076757,-0.00002596,-0.00166190,0.00510202,0.00246040,0.00037461,
 -0.00358235,0.00037838,0.00013389,-0.00022951,-0.00027332,-0.00024703,
 -0.00038378,-0.00040320,0.00025191,-0.00031253,-0.00001491,-0.00008353
 ,0.00037823,-0.00036566,0.00004669,0.00030311,-0.00041233,-0.00005264,
 0.00021201,-0.01353787,0.01153336,0.00425440,-0.01237711,-0.00431751,-
 0.00853665,-0.01370304,-0.00433158,-0.00986199,0.01311062,0.02321380,0
 .02414269,-0.04837635,-0.02814084,0.03740413,0.01098993,0.02794541,-0.
 00576048,-0.01385042,0.00307935,-0.00371126,-0.00357048,-0.00617741,-0
 .00322516,-0.00596171,-0.00044460,-0.00041296,0.00856884,0.00539168,-0
 .01088605,-0.01076093,-0.00569657,-0.00111932,-0.00369465,-0.00635343,
 0.00351649,-0.00320801,0.00556389,-0.00380303,-0.01631672,-0.00256547,
 -0.00365936,-0.00337796,0.00484522,0.00219355,0.00118544,-0.00316337,-
 0.00070752,-0.00021196,-0.00238466,0.00170285,0.00115470,-0.00089392,0
 .00180183,0.00541776,0.00158265,0.00016434,0.00594431,-0.00230545,0.00
 069011,0.00583142,0.00505890,0.00187908,0.00012618,-0.00237827,-0.0006
 5741,0.00089665,-0.00103622,-0.00331534,0.00094060,-0.00130515,0.00003
 452,-0.01383472,0.00489536,0.00158318,0.00069814,0.00030945,0.00070733
 ,-0.00044709,0.00085943,-0.00079924,-0.00002825,-0.00039595,-0.0001676
 7,-0.00045521,-0.00072159,0.00038997,0.00057947,-0.00019429,0.00045847
 ,-0.00008985,-0.00019372,0.00015182,0.00000184,0.00008983,-0.00031219,
 -0.00002982,0.00030829,0.00005111,-0.00000662,0.00000570,-0.00000494,0
 .00003517,0.00001404,-0.00002560,-0.00003326,0.00037418,0.00014631,0.0
 0043726,0.00092518,0.00002707,0.00089647,-0.00090806,0.00090014,-0.000
 11501,0.00021526,-0.00026684,-0.00060060,0.00003390,-0.00013173,0.0002
 9702,-0.00014915,-0.00008764,0.18921330,0.00119056,-0.00046716,-0.0013
 9295,0.00011367,0.00080649,0.00016422,0.00016912,0.00006616,-0.0001280
 7,0.00013046,0.00017320,-0.00006790,0.00025156,-0.00055240,-0.00026995
 ,-0.00059966,-0.00036414,0.00041785,0.00204543,-0.00390766,0.00273930,
 -0.01723347,0.00067480,-0.00798343,-0.00351511,0.00358805,-0.00286314,
 0.00005576,-0.00005871,0.00009915,0.00004353,-0.00003061,-0.00002238,0
 .00000012,-0.00000614,-0.00000263,0.00001300,0.00001435,-0.00001126,-0
 .00010727,-0.00001320,-0.00000085,-0.00559993,-0.01236024,-0.00924394,
 -0.00607705,-0.01543548,0.00680166,0.00424828,0.00277757,-0.00105354,0
 .00178416,-0.00027662,0.00381643,-0.00031560,0.00003425,0.00151455,0.0
 0074610,0.00035555,-0.00082090,0.00016181,-0.00002832,-0.00005066,-0.0
 0022043,-0.00042245,-0.00007269,-0.00013528,0.00007715,-0.00022627,-0.
 00000154,-0.00005188,0.00007394,-0.00017301,-0.00005010,0.00017937,-0.
 00012658,-0.00009396,0.00001396,0.00722971,-0.02496370,-0.00563427,0.0
 0197842,-0.01523241,0.00572214,-0.00244070,-0.00184726,0.00765637,0.01
 871113,-0.05612460,-0.02467532,-0.02671260,0.03679568,0.01746181,0.018
 32305,-0.03186453,0.05287130,-0.00290614,-0.01285058,-0.00844342,0.000
 07557,0.01148253,0.00260876,0.00372242,-0.03112058,-0.00086333,0.00409
 759,-0.00538766,-0.00406921,-0.00609202,-0.00493196,-0.01397701,0.0008
 0978,0.00616357,-0.01065873,0.01160588,-0.00607608,-0.00173102,-0.0033
 9545,-0.00208875,-0.00340695,0.01319417,0.00092781,-0.00732523,-0.0026
 6209,0.00327992,0.00087615,-0.00356521,0.00015037,0.00102490,-0.005253
 37,0.00222540,-0.00346589,0.00086284,-0.00056664,0.00101716,0.00372881
 ,-0.00181563,0.00105623,0.00005192,-0.00007786,0.00011482,-0.00407101,
 -0.00259165,0.00125402,-0.00300589,0.00089372,0.00553382,-0.00558097,0
 .00276930,0.00081960,-0.00336915,0.00188916,0.00056431,0.00076229,-0.0
 0004891,0.00062437,0.00052980,-0.00032633,0.00067879,-0.00088571,0.000
 02167,0.00007797,0.00014474,-0.00003350,-0.00031810,-0.00074669,0.0002
 0482,-0.00041491,-0.00016568,-0.00012456,-0.00001842,0.00024124,-0.000
 12537,0.00050182,0.00020003,-0.00084509,-0.00002258,0.00003848,0.00000
 298,-0.00000342,-0.00002997,-0.00005695,0.00000475,0.00057068,-0.00007
 422,-0.00000799,0.00007889,0.00003458,0.00033884,-0.00131226,0.0005564
 3,-0.00110319,0.00023040,-0.00000358,0.00005285,0.00052313,-0.00015284
 ,0.00047396,-0.00018935,-0.00029390,-0.00063727,0.00606559,0.15779281,
 0.00182482,-0.00048615,-0.00180071,-0.00010008,0.00096358,0.00036258,0
 .00034789,0.00025844,-0.00026919,0.00014296,0.00019713,-0.00005770,0.0
 0038527,-0.00071313,-0.00049079,-0.00095205,-0.00060824,0.00052711,0.0
 0918608,0.00000250,-0.01583677,0.01857457,-0.00364723,0.01873744,-0.05
 487959,0.00334885,-0.00739884,0.00002291,-0.00001255,0.00009140,0.0000
 3558,-0.00004481,-0.00001687,0.00002017,-0.00000508,0.00000637,0.00004
 798,0.00001724,-0.00001860,-0.00003221,-0.00007965,0.00006730,0.002799
 64,-0.01019899,-0.03686031,-0.00005403,0.00381283,-0.01710012,-0.00270
 877,0.00058429,-0.00200771,0.00723797,-0.00230260,0.00915850,0.0003945
 1,-0.00024031,-0.00015525,0.00164347,0.00011136,-0.00337309,-0.0001673
 7,0.00001133,-0.00013353,0.00025969,0.00046134,-0.00003953,0.00021713,
 -0.00008130,-0.00028508,0.00028464,-0.00001816,0.00029048,-0.00039823,
 0.00054293,-0.00010317,-0.00047308,-0.00017685,-0.00011977,0.00461320,
 -0.00823201,-0.01409377,-0.00975389,-0.00698576,-0.03150816,-0.0060837
 4,-0.00018295,-0.02060964,0.02350334,-0.02875526,0.02949594,0.03158943
 ,0.01656226,-0.00977346,0.00150534,0.05271756,0.00723921,-0.00866261,-
 0.00105402,-0.02924297,-0.00244585,0.00682627,-0.00473104,0.00028494,0
 .00233633,-0.00973955,-0.00413776,-0.00264272,0.00340765,-0.00187606,-
 0.00725775,-0.01628241,-0.00238853,-0.00900339,0.00060051,-0.00996338,
 0.00094364,0.00000090,0.00330221,-0.00151657,0.01079463,0.00342451,-0.
 00104125,-0.00514733,0.00329128,-0.00436059,-0.00165310,0.00267101,0.0
 0036919,-0.00131759,0.00208608,-0.00057883,0.00099872,0.00095558,0.001
 00394,-0.00543581,-0.00244419,0.00090724,-0.00176473,-0.00265608,-0.00
 162904,-0.00230458,-0.00156120,-0.00009946,0.00053167,-0.00025702,0.00
 022586,0.00013887,-0.00358379,0.00234346,0.00045212,-0.00597110,0.0018
 7475,-0.00002518,0.00027173,0.00011440,0.00046243,-0.00017781,0.000649
 36,-0.00102832,0.00002989,0.00002064,-0.00006240,-0.00082710,-0.000618
 61,0.00112768,0.00055537,-0.00015065,0.00026579,0.00002945,0.00003578,
 0.00011025,-0.00005814,0.00012165,-0.00040567,-0.00005112,0.00042329,0
 .00016733,0.00000066,0.00002280,-0.00000170,0.00003083,0.00006607,-0.0
 0000808,-0.00002161,0.00008819,-0.00002407,0.00087412,0.00075622,-0.00
 039833,0.00104063,-0.00060750,0.00109906,0.00004953,0.00013174,-0.0004
 7278,-0.00075871,0.00000483,0.00011666,0.00008791,-0.00013966,0.000114
 84,-0.00300275,-0.00813258,0.15515985,-0.01136672,0.03798948,0.0290814
 6,0.00043898,-0.00861203,0.00059141,-0.00422124,0.00029121,0.00283591,
 0.00090412,0.00136451,-0.00031432,-0.00088347,0.00278100,0.00082021,0.
 00474729,0.00396481,-0.00405659,-0.24116001,-0.01245909,-0.06386986,-0
 .02371688,-0.00961500,0.00310671,-0.03362169,0.00719742,-0.02246685,0.
 00015937,0.00013450,-0.00004267,-0.00052347,0.00017508,0.00017271,-0.0
 0003052,0.00005944,0.00011483,-0.00008280,-0.00011755,0.00008088,-0.00
 002800,0.00086172,0.00071454,-0.01423317,-0.00125032,0.00448665,-0.008
 45189,0.00251402,-0.00864437,0.00578054,0.00116268,-0.00164135,0.00054
 025,-0.00032031,0.00321252,0.00037679,0.00022696,0.00180175,0.00144071
 ,0.00047812,-0.00169698,0.00003258,0.00013289,-0.00025178,-0.00006862,
 -0.00006666,-0.00021933,-0.00015900,-0.00000082,0.00001723,-0.00002972
 ,-0.00004917,0.00022101,-0.00018262,0.00007688,-0.00009732,-0.00028277
 ,-0.00001476,0.00001271,-0.00136451,-0.00030320,0.00035662,-0.00071543
 ,0.00090098,-0.00073149,-0.00071145,-0.00207805,-0.00145705,0.00037229
 ,0.00256776,0.00186338,0.00161823,0.00068873,-0.00077007,0.00082082,-0
 .00142135,0.00144161,-0.00008436,-0.00103639,-0.00085568,-0.00018514,-
 0.00098284,-0.00034395,-0.00112768,-0.00046250,0.00036179,-0.00037882,
 -0.00016633,0.00037062,-0.00095971,0.00109723,-0.00076060,-0.00003076,
 0.00048161,-0.00046043,0.00068612,-0.00040232,-0.00001005,0.00060016,0
 .00008790,0.00032352,-0.00075124,0.00114655,0.00069971,-0.00017141,0.0
 0026999,0.00007721,-0.00020490,0.00005384,0.00002298,-0.00030594,0.000
 12694,-0.00023790,-0.00014157,-0.00003513,-0.00009582,-0.00027160,0.00
 011054,-0.00005477,-0.00024924,-0.00022141,-0.00010238,0.00018754,-0.0
 0056413,-0.00033183,0.00015510,-0.00022512,-0.00057651,0.00054150,-0.0
 0046673,0.00005723,-0.05996388,0.01476445,0.01117564,0.00218997,-0.005
 22740,-0.00953307,0.00015056,-0.00041116,-0.00007396,-0.00133664,-0.00
 061474,0.00031403,-0.00030835,-0.00024738,0.00035830,-0.00003667,0.000
 06697,-0.00008420,0.00003632,-0.00004322,-0.00004095,-0.00000095,-0.00
 009883,0.00012287,0.00002157,-0.00004151,0.00000414,-0.00000573,0.0000
 0535,0.00000226,-0.00000238,-0.00000308,-0.00000448,0.00044673,-0.0007
 1725,0.00007068,0.00032141,0.00019249,-0.00003128,-0.00046520,0.000394
 33,-0.00069588,-0.00008800,-0.00007632,0.00023448,0.00031328,-0.000119
 42,0.00010573,0.00000027,-0.00009743,-0.00005479,0.00682205,0.00175904
 ,0.00282553,0.37919958,0.02601882,-0.01922955,-0.00179613,-0.00005098,
 0.00484258,0.00271299,0.00125273,-0.00008272,-0.00288523,-0.00134599,-
 0.00125375,0.00117250,-0.00054891,0.00128971,-0.00120510,-0.00329092,-
 0.00297958,0.00294509,-0.06941205,-0.01421073,0.02670268,0.01561077,-0
 .01028382,0.01774945,0.01823814,0.00021042,-0.02120568,-0.00017685,0.0
 0024246,0.00050037,0.00010067,0.00006818,-0.00026537,0.00015670,0.0000
 1595,0.00014437,-0.00001224,-0.00000646,-0.00012429,0.00134491,0.00083
 340,0.00050994,-0.00618101,0.00492407,-0.00061764,-0.00125138,0.005226
 27,0.00363643,0.00491206,0.00054256,-0.00318152,0.00040082,-0.00466458
 ,0.00925740,0.00062628,-0.00031285,-0.00056477,0.00050385,0.00086131,-
 0.00126925,-0.00000654,-0.00001216,-0.00011773,0.00026324,-0.00005243,
 0.00009206,0.00004251,0.00004198,-0.00016225,-0.00005642,-0.00010837,0
 .00017712,-0.00005695,-0.00006527,0.00027316,-0.00019064,-0.00026823,0
 .00048390,-0.00060882,-0.00015846,0.00011959,-0.00018393,0.00041474,-0
 .00039281,-0.00056076,-0.00126335,-0.00138652,0.00042431,0.00122491,0.
 00176781,0.00078606,0.00027290,-0.00033558,0.00022235,-0.00054489,0.00
 073679,-0.00013145,-0.00019491,-0.00064956,-0.00013302,-0.00053446,-0.
 00032175,-0.00055757,-0.00013594,0.00012894,-0.00019001,-0.00006987,0.
 00015850,-0.00041996,0.00055004,-0.00045028,0.00005009,0.00022786,-0.0
 0022553,0.00026449,-0.00018456,-0.00000340,0.00029747,0.00003072,0.000
 17813,-0.00051909,-0.00001397,0.00046732,-0.00006388,0.00011214,0.0000
 2908,-0.00007367,0.00003207,-0.00000055,-0.00012961,0.00005808,-0.0001
 0510,-0.00007036,-0.00001339,-0.00005943,-0.00014162,0.00006101,-0.000
 03045,-0.00012183,-0.00010313,-0.00005286,0.00011468,0.00003234,-0.000
 15014,0.00013200,-0.00003866,-0.00032683,0.00017507,-0.00006856,-0.000
 07444,0.05265524,-0.35874930,-0.11529989,-0.00499582,-0.02893302,-0.03
 079204,0.00090353,-0.00042514,0.00044397,-0.00198792,-0.00009262,0.000
 23445,-0.00043626,0.00015110,0.00094473,-0.00003724,0.00018298,-0.0003
 6912,0.00031669,-0.00008456,0.00010349,-0.00025688,-0.00005898,0.00025
 441,0.00001115,-0.00001694,0.00000361,-0.00000380,-0.00000216,0.000002
 86,-0.00000059,-0.00000316,-0.00000471,0.00103968,-0.00120170,0.000030
 78,0.00054562,0.00066370,0.00002123,-0.00038372,-0.00004704,-0.0005066
 6,-0.00002983,0.00005221,-0.00009628,0.00038150,-0.00040047,0.00034218
 ,0.00001614,-0.00003006,0.00000764,0.00236745,-0.00001416,0.00274634,-
 0.03555647,0.42374829,0.00701498,-0.03012750,0.00408090,0.00617167,-0.
 00028464,0.00210421,-0.00078693,-0.00149055,-0.00190372,-0.00061643,-0
 .00130855,0.00047176,-0.00117007,0.00114109,0.00114143,-0.00099875,0.0
 0137588,-0.00248646,-0.12172436,0.03249370,-0.07788458,-0.02988209,-0.
 01931067,0.01311751,0.02937636,0.01420687,-0.01105889,0.00005866,-0.00
 012390,0.00027417,-0.00003814,0.00014843,-0.00052147,0.00009590,-0.000
 03129,0.00008861,-0.00003279,-0.00001281,0.00013164,0.00048371,0.00020
 477,-0.00067340,-0.00479931,-0.00131839,-0.00335427,-0.01171002,0.0059
 4390,-0.01017471,0.00406675,0.00273815,-0.00612645,0.00781776,-0.00384
 033,0.00810291,-0.00038321,-0.00099682,0.00232391,0.00100200,-0.000308
 78,-0.00007654,0.00011602,0.00010749,-0.00016846,-0.00003786,-0.000033
 37,-0.00025250,-0.00014271,0.00007422,-0.00030863,-0.00019539,-0.00005
 597,0.00025748,0.00008857,0.00005484,0.00033460,-0.00006521,-0.0001001
 2,0.00016771,-0.00106773,-0.00024431,0.00045894,-0.00075549,0.00074131
 ,-0.00062730,-0.00031207,-0.00193628,-0.00086925,0.00021391,0.00244307
 ,0.00128788,0.00129377,0.00052135,-0.00073412,0.00104660,-0.00132228,0
 .00140367,-0.00006582,-0.00107396,-0.00058108,-0.00014980,-0.00089509,
 -0.00022439,-0.00097275,-0.00042919,0.00039095,-0.00030749,-0.00014431
 ,0.00034729,-0.00115615,0.00107420,-0.00063897,-0.00012236,0.00045275,
 -0.00041120,0.00071313,-0.00038996,-0.00006048,0.00049742,0.00009656,0
 .00021117,-0.00065424,0.00111508,0.00033732,-0.00017717,0.00026784,0.0
 0008440,-0.00023184,0.00003675,0.00004891,-0.00031319,0.00012696,-0.00
 022610,-0.00012323,-0.00003983,-0.00004425,-0.00022000,0.00008626,-0.0
 0003508,-0.00019899,-0.00018368,-0.00007239,-0.00000951,-0.00065792,-0
 .00028991,0.00011589,-0.00020112,-0.00041664,0.00048338,-0.00046910,0.
 00012950,0.06397606,-0.11443688,-0.11062118,-0.00485147,0.00456011,0.0
 0753659,0.00042706,-0.00052414,0.00018927,-0.00071037,0.00072905,-0.00
 019643,-0.00012921,-0.00005710,0.00028709,-0.00003277,0.00010759,-0.00
 015294,0.00011641,-0.00009619,0.00003197,-0.00007435,-0.00009910,0.000
 16719,0.00002436,-0.00004174,-0.00000081,-0.00000412,0.00000396,0.0000
 0347,-0.00000224,-0.00000656,-0.00000717,0.00074312,-0.00039868,-0.000
 03033,0.00039789,0.00049080,0.00035434,-0.00049460,0.00010875,-0.00072
 400,-0.00011041,-0.00002593,0.00019061,0.00038570,-0.00025316,0.000173
 61,0.00002698,-0.00009531,-0.00006273,0.00652692,0.00196421,0.00057241
 ,0.05254967,0.10994956,0.18521342\\0.00000009,-0.00000015,0.00000109,0
 .00000030,0.00000080,0.00000123,0.00000107,0.00000068,0.00000111,0.000
 00122,0.00000112,0.00000183,0.00000028,0.00000016,0.00000250,0.0000001
 9,0.00000129,0.00000212,-0.00000112,-0.00000028,0.00000073,0.00000010,
 0.00000049,-0.00000011,-0.00000043,-0.00000060,-0.00000014,0.00000043,
 0.00000038,0.00000035,0.00000124,0.00000127,0.00000125,0.00000129,0.00
 000145,0.00000245,0.00000115,0.00000167,0.00000265,-0.00000009,0.00000
 023,0.00000206,-0.00000140,-0.00000059,-0.00000091,0.00000044,0.000000
 01,-0.00000008,0.00000020,0.00000045,0.00000091,-0.00000111,-0.0000010
 0,0.00000005,0.00000118,0.00000030,0.00000120,-0.00000273,-0.00000167,
 -0.00000103,0.00000104,0.00000102,0.00000163,0.00000053,0.00000102,0.0
 0000082,0.00000133,0.00000101,0.00000064,-0.00000209,-0.00000159,-0.00
 000007,-0.00000139,-0.00000096,-0.00000096,-0.00000231,-0.00000126,-0.
 00000042,-0.00000060,-0.00000074,-0.00000216,0.00000091,0.00000066,-0.
 00000141,0.00000014,0.00000002,-0.00000073,0.00000139,0.00000032,-0.00
 000214,-0.00000081,-0.00000098,-0.00000180,0.00000039,-0.00000085,0.00
 000006,0.00000098,0.00000013,-0.00000164,0.00000063,-0.00000054,-0.000
 00212,0.00000002,-0.00000098,-0.00000260,-0.00000092,-0.00000134,-0.00
 000366,-0.00000033,-0.00000041,-0.00000121,0.00000108,0.00000071,-0.00
 000091,0.00000066,-0.00000023,-0.00000184,-0.00000022,0.00000029,-0.00
 000340,0.00000069,0.00000109,-0.00000030,-0.00000021,-0.00000022,-0.00
 000117,0.00000001,-0.00000051,-0.00000222,0.00000077,0.00000005,-0.000
 00170,0.00000052,-0.00000053,-0.00000296,0.00000037,-0.00000168,-0.000
 00375,-0.00000009,-0.00000136,-0.00000401,0.00000125,0.00000083,-0.000
 00020,0.00000182,0.00000070,-0.00000163,0.00000158,-0.00000007,-0.0000
 0056,-0.00000063,-0.00000095,0.00000111,-0.00000010,0.00000025,-0.0000
 0004,-0.00000117,-0.00000050,0.00000231,-0.00000116,0.00000025,0.00000
 220,-0.00000108,-0.00000021,0.00000047,-0.00000092,0.00000008,0.000000
 60,0.00000065,0.00000001,0.00000252,0.00000021,0.00000075,0.00000123,0
 .00000031,-0.00000011,0.00000037,0.00000049,0.00000098,0.00000231,0.00
 000060,0.00000049,0.00000146,-0.00000070,0.00000010,0.00000279,-0.0000
 0244,-0.00000122,0.00000155,-0.00000004,-0.00000018,0.00000151,-0.0000
 0069,0.00000103,0.00000126,-0.00000110,-0.00000001,0.00000101,-0.00000
 115,-0.00000052,0.00000076,0.00000013,-0.00000006,-0.00000136,-0.00000
 062,0.00000025,0.00000110\\\@


 THERE ARE PEOPLE SO ADDICTED TO EXAGERATING THEY
 CAN'T TELL THE TRUTH WITHOUT LYING. -- FORTUNE COOKIE
 Job cpu time:       5 days 16 hours 11 minutes 31.0 seconds.
 Elapsed time:       0 days  5 hours 51 minutes 37.4 seconds.
 File lengths (MBytes):  RWF=  13920 Int=      0 D2E=      0 Chk=    108 Scr=      8
 Normal termination of Gaussian 16 at Fri May  2 21:26:08 2025.
