 Entering Gaussian System, Link 0=/sysapps/ubuntu-applications/gaussian-new/avx/g16//g16
 Input=i3-minor.in
 Output=i3-minor.log
 Initial command:
 /sysapps/ubuntu-applications/gaussian-new/avx/g16/l1.exe "/data/temp-scratch/selhajj1/7575593/Gau-2506382.inp" -scrdir="/data/temp-scratch/selhajj1/7575593/"
 Entering Link 1 = /sysapps/ubuntu-applications/gaussian-new/avx/g16/l1.exe PID=   2506384.
  
 Copyright (c) 1988,1990,1992,1993,1995,1998,2003,2009,2016,
            Gaussian, Inc.  All Rights Reserved.
  
 This is part of the Gaussian(R) 16 program.  It is based on
 the Gaussian(R) 09 system (copyright 2009, Gaussian, Inc.),
 the Gaussian(R) 03 system (copyright 2003, Gaussian, Inc.),
 the Gaussian(R) 98 system (copyright 1998, Gaussian, Inc.),
 the Gaussian(R) 94 system (copyright 1995, Gaussian, Inc.),
 the Gaussian 92(TM) system (copyright 1992, Gaussian, Inc.),
 the Gaussian 90(TM) system (copyright 1990, Gaussian, Inc.),
 the Gaussian 88(TM) system (copyright 1988, Gaussian, Inc.),
 the Gaussian 86(TM) system (copyright 1986, Carnegie Mellon
 University), and the Gaussian 82(TM) system (copyright 1983,
 Carnegie Mellon University). Gaussian is a federally registered
 trademark of Gaussian, Inc.
  
 This software contains proprietary and confidential information,
 including trade secrets, belonging to Gaussian, Inc.
  
 This software is provided under written license and may be
 used, copied, transmitted, or stored only in accord with that
 written license.
  
 The following legend is applicable only to US Government
 contracts under FAR:
  
                    RESTRICTED RIGHTS LEGEND
  
 Use, reproduction and disclosure by the US Government is
 subject to restrictions as set forth in subparagraphs (a)
 and (c) of the Commercial Computer Software - Restricted
 Rights clause in FAR 52.227-19.
  
 Gaussian, Inc.
 340 Quinnipiac St., Bldg. 40, Wallingford CT 06492
  
  
 ---------------------------------------------------------------
 Warning -- This program may not be used in any manner that
 competes with the business of Gaussian, Inc. or will provide
 assistance to any competitor of Gaussian, Inc.  The licensee
 of this program is prohibited from giving any competitor of
 Gaussian, Inc. access to this program.  By using this program,
 the user acknowledges that Gaussian, Inc. is engaged in the
 business of creating and licensing software in the field of
 computational chemistry and represents and warrants to the
 licensee that it is not a competitor of Gaussian, Inc. and that
 it will not use this program in any manner prohibited above.
 ---------------------------------------------------------------
  

 Cite this work as:
 Gaussian 16, Revision A.03,
 M. J. Frisch, G. W. Trucks, H. B. Schlegel, G. E. Scuseria, 
 M. A. Robb, J. R. Cheeseman, G. Scalmani, V. Barone, 
 G. A. Petersson, H. Nakatsuji, X. Li, M. Caricato, A. V. Marenich, 
 J. Bloino, B. G. Janesko, R. Gomperts, B. Mennucci, H. P. Hratchian, 
 J. V. Ortiz, A. F. Izmaylov, J. L. Sonnenberg, D. Williams-Young, 
 F. Ding, F. Lipparini, F. Egidi, J. Goings, B. Peng, A. Petrone, 
 T. Henderson, D. Ranasinghe, V. G. Zakrzewski, J. Gao, N. Rega, 
 G. Zheng, W. Liang, M. Hada, M. Ehara, K. Toyota, R. Fukuda, 
 J. Hasegawa, M. Ishida, T. Nakajima, Y. Honda, O. Kitao, H. Nakai, 
 T. Vreven, K. Throssell, J. A. Montgomery, Jr., J. E. Peralta, 
 F. Ogliaro, M. J. Bearpark, J. J. Heyd, E. N. Brothers, K. N. Kudin, 
 V. N. Staroverov, T. A. Keith, R. Kobayashi, J. Normand, 
 K. Raghavachari, A. P. Rendell, J. C. Burant, S. S. Iyengar, 
 J. Tomasi, M. Cossi, J. M. Millam, M. Klene, C. Adamo, R. Cammi, 
 J. W. Ochterski, R. L. Martin, K. Morokuma, O. Farkas, 
 J. B. Foresman, and D. J. Fox, Gaussian, Inc., Wallingford CT, 2016.
 
 ******************************************
 Gaussian 16:  ES64L-G16RevA.03 25-Dec-2016
                12-Feb-2025 
 ******************************************
 %chk=i3-minor.chk
 %mem=616Gb
 %nprocshared=24
 Will use up to   24 processors via shared memory.
 ------------------------------------------------------
 #P UMN15/genecp freq scrf=(smd,solvent=DiChloroEthane)
 ------------------------------------------------------
 1/10=4,30=1,38=1/1,3;
 2/12=2,17=6,18=5,40=1/2;
 3/5=7,11=2,16=1,17=8,25=1,30=1,70=32201,71=2,72=10,74=-73,116=2,140=1/1,2,3;
 4//1;
 5/5=2,38=5,53=10,98=1/2;
 8/6=4,10=90,11=11/1;
 11/6=1,8=1,9=11,15=111,16=1/1,2,10;
 10/6=1/2;
 6/7=2,8=2,9=2,10=2,28=1/1;
 7/8=1,10=1,25=1/1,2,3,16;
 1/10=4,30=1/3;
 99//99;
 Leave Link    1 at Wed Feb 12 13:46:11 2025, MaxMem= 82678120448 cpu:               3.9 elap:               0.2
 (Enter /sysapps/ubuntu-applications/gaussian-new/avx/g16/l101.exe)
 ----
 freq
 ----
 Symbolic Z-matrix:
 Charge =  0 Multiplicity = 2
 C                     1.98822  -0.96012  -0.85049 
 C                     1.70023   0.03519   0.29764 
 C                     0.65771  -1.52092  -1.39922 
 O                    -0.25137  -0.79157  -1.73052 
 O                     0.77303   0.81275   0.27534 
 O                     2.58093  -0.03534   1.26103 
 O                     0.66538  -2.81786  -1.52899 
 C                     2.44237   0.92648   2.32366 
 C                    -0.55629  -3.41907  -1.99865 
 H                     3.28483   0.75732   3.00149 
 H                     1.48742   0.76448   2.83871 
 H                     2.47278   1.93801   1.89728 
 H                    -0.36611  -4.49527  -2.04565 
 H                    -0.80759  -3.02149  -2.99006 
 H                    -1.36143  -3.18517  -1.28977 
 O                    -3.07819  -1.64897  -0.49322 
 O                    -1.09772  -0.07147   2.48912 
 O                    -1.19721   2.58445  -1.11843 
 S                    -1.98197   3.3985   -0.16378 
 S                    -3.61523  -1.14386  -1.78424 
 S                    -0.46737  -1.40321   2.36861 
 O                    -2.59302   2.5073    0.85734 
 O                    -2.8255    4.43956  -0.71115 
 O                    -3.14673   0.24589  -2.00061 
 O                    -3.55513  -2.05161  -2.91188 
 O                    -0.35085  -1.78204   0.93367 
 O                     0.718    -1.65359   3.17189 
 C                    -1.734    -2.57137   3.00581 
 C                    -5.40259  -0.92413  -1.42887 
 C                    -0.70512   4.29976   0.80218 
 F                    -1.35773  -3.81205   2.73937 
 F                    -2.89759  -2.33201   2.4275 
 F                    -1.85525  -2.42289   4.31388 
 F                    -5.55075  -0.12356  -0.38129 
 F                    -5.95961  -2.09456  -1.15881 
 F                    -6.00981  -0.38529  -2.4736 
 F                     0.14174   3.44648   1.36214 
 F                    -1.2847    5.0153    1.75402 
 F                    -0.02953   5.11639   0.00382 
 C                     3.82839   0.25815  -1.89417 
 C                     4.77852  -0.9561   -1.61039 
 C                     6.20462  -0.60243  -1.54156 
 C                     4.61332  -1.91098  -2.73228 
 C                     2.57888  -2.80686   0.84994 
 C                     4.74242  -2.30117   1.7389 
 C                     3.47145  -2.91217   1.87739 
 H                     1.57323  -3.22835   0.90586 
 H                     5.48103  -2.31703   2.54282 
 H                     3.21393  -3.43135   2.80054 
 N                     7.32786  -0.33216  -1.5785 
 N                     4.48701  -2.64552  -3.61606 
 N                     4.31382  -1.60538  -0.36833 
 N                     5.13269  -1.68273   0.62841 
 C                     2.94942  -2.11559  -0.4053 
 H                     2.88783  -2.85516  -1.23278 
 H                     4.04546   0.57645  -2.92488 
 C                     3.94105   1.46273  -0.97712 
 C                     3.01779   2.49201  -1.21966 
 C                     4.89969   1.62597   0.03133 
 C                     3.06715   3.67357  -0.48095 
 H                     2.25456   2.36265  -1.99165 
 C                     4.95682   2.81811   0.75778 
 H                     5.61265   0.83934   0.28209 
 C                     4.0474    3.84465   0.50059 
 H                     2.34046   4.46296  -0.6778 
 H                     5.71543   2.93549   1.53426 
 H                     4.09455   4.7745    1.0714 
 Yb                   -1.66788   0.36486   0.01012 
 O                     2.52468  -0.2956   -1.96623 
 
 ITRead=  0  0  0  0  0  0  0  0  0  0  0  0  0  0  0  0  0  0  0  0
 ITRead=  0  0  0  0  0  0  0  0  0  0  0  0  0  0  0  0  0  0  0  0
 ITRead=  0  0  0  0  0  0  0  0  0  0  0  0  0  0  0  0  0  0  0  0
 ITRead=  0  0  0  0  0  0  0  0  0
 MicOpt= -1 -1 -1 -1 -1 -1 -1 -1 -1 -1 -1 -1 -1 -1 -1 -1 -1 -1 -1 -1
 MicOpt= -1 -1 -1 -1 -1 -1 -1 -1 -1 -1 -1 -1 -1 -1 -1 -1 -1 -1 -1 -1
 MicOpt= -1 -1 -1 -1 -1 -1 -1 -1 -1 -1 -1 -1 -1 -1 -1 -1 -1 -1 -1 -1
 MicOpt= -1 -1 -1 -1 -1 -1 -1 -1 -1
 NAtoms=     69 NQM=       69 NQMF=       0 NMMI=      0 NMMIF=      0
                NMic=       0 NMicF=      0.
                    Isotopes and Nuclear Properties:
 (Nuclear quadrupole moments (NQMom) in fm**2, nuclear magnetic moments (NMagM)
  in nuclear magnetons)

  Atom         1           2           3           4           5           6           7           8           9          10
 IAtWgt=          12          12          12          16          16          16          16          12          12           1
 AtmWgt=  12.0000000  12.0000000  12.0000000  15.9949146  15.9949146  15.9949146  15.9949146  12.0000000  12.0000000   1.0078250
 NucSpn=           0           0           0           0           0           0           0           0           0           1
 AtZEff=  -0.0000000  -0.0000000  -0.0000000  -0.0000000  -0.0000000  -0.0000000  -0.0000000  -0.0000000  -0.0000000  -0.0000000
 NQMom=    0.0000000   0.0000000   0.0000000   0.0000000   0.0000000   0.0000000   0.0000000   0.0000000   0.0000000   0.0000000
 NMagM=    0.0000000   0.0000000   0.0000000   0.0000000   0.0000000   0.0000000   0.0000000   0.0000000   0.0000000   2.7928460
 AtZNuc=   6.0000000   6.0000000   6.0000000   8.0000000   8.0000000   8.0000000   8.0000000   6.0000000   6.0000000   1.0000000

  Atom        11          12          13          14          15          16          17          18          19          20
 IAtWgt=           1           1           1           1           1          16          16          16          32          32
 AtmWgt=   1.0078250   1.0078250   1.0078250   1.0078250   1.0078250  15.9949146  15.9949146  15.9949146  31.9720718  31.9720718
 NucSpn=           1           1           1           1           1           0           0           0           0           0
 AtZEff=  -0.0000000  -0.0000000  -0.0000000  -0.0000000  -0.0000000  -0.0000000  -0.0000000  -0.0000000  -0.0000000  -0.0000000
 NQMom=    0.0000000   0.0000000   0.0000000   0.0000000   0.0000000   0.0000000   0.0000000   0.0000000   0.0000000   0.0000000
 NMagM=    2.7928460   2.7928460   2.7928460   2.7928460   2.7928460   0.0000000   0.0000000   0.0000000   0.0000000   0.0000000
 AtZNuc=   1.0000000   1.0000000   1.0000000   1.0000000   1.0000000   8.0000000   8.0000000   8.0000000  16.0000000  16.0000000

  Atom        21          22          23          24          25          26          27          28          29          30
 IAtWgt=          32          16          16          16          16          16          16          12          12          12
 AtmWgt=  31.9720718  15.9949146  15.9949146  15.9949146  15.9949146  15.9949146  15.9949146  12.0000000  12.0000000  12.0000000
 NucSpn=           0           0           0           0           0           0           0           0           0           0
 AtZEff=  -0.0000000  -0.0000000  -0.0000000  -0.0000000  -0.0000000  -0.0000000  -0.0000000  -0.0000000  -0.0000000  -0.0000000
 NQMom=    0.0000000   0.0000000   0.0000000   0.0000000   0.0000000   0.0000000   0.0000000   0.0000000   0.0000000   0.0000000
 NMagM=    0.0000000   0.0000000   0.0000000   0.0000000   0.0000000   0.0000000   0.0000000   0.0000000   0.0000000   0.0000000
 AtZNuc=  16.0000000   8.0000000   8.0000000   8.0000000   8.0000000   8.0000000   8.0000000   6.0000000   6.0000000   6.0000000

  Atom        31          32          33          34          35          36          37          38          39          40
 IAtWgt=          19          19          19          19          19          19          19          19          19          12
 AtmWgt=  18.9984032  18.9984032  18.9984032  18.9984032  18.9984032  18.9984032  18.9984032  18.9984032  18.9984032  12.0000000
 NucSpn=           1           1           1           1           1           1           1           1           1           0
 AtZEff=  -0.0000000  -0.0000000  -0.0000000  -0.0000000  -0.0000000  -0.0000000  -0.0000000  -0.0000000  -0.0000000  -0.0000000
 NQMom=    0.0000000   0.0000000   0.0000000   0.0000000   0.0000000   0.0000000   0.0000000   0.0000000   0.0000000   0.0000000
 NMagM=    2.6288670   2.6288670   2.6288670   2.6288670   2.6288670   2.6288670   2.6288670   2.6288670   2.6288670   0.0000000
 AtZNuc=   9.0000000   9.0000000   9.0000000   9.0000000   9.0000000   9.0000000   9.0000000   9.0000000   9.0000000   6.0000000

  Atom        41          42          43          44          45          46          47          48          49          50
 IAtWgt=          12          12          12          12          12          12           1           1           1          14
 AtmWgt=  12.0000000  12.0000000  12.0000000  12.0000000  12.0000000  12.0000000   1.0078250   1.0078250   1.0078250  14.0030740
 NucSpn=           0           0           0           0           0           0           1           1           1           2
 AtZEff=  -0.0000000  -0.0000000  -0.0000000  -0.0000000  -0.0000000  -0.0000000  -0.0000000  -0.0000000  -0.0000000  -0.0000000
 NQMom=    0.0000000   0.0000000   0.0000000   0.0000000   0.0000000   0.0000000   0.0000000   0.0000000   0.0000000   2.0440000
 NMagM=    0.0000000   0.0000000   0.0000000   0.0000000   0.0000000   0.0000000   2.7928460   2.7928460   2.7928460   0.4037610
 AtZNuc=   6.0000000   6.0000000   6.0000000   6.0000000   6.0000000   6.0000000   1.0000000   1.0000000   1.0000000   7.0000000

  Atom        51          52          53          54          55          56          57          58          59          60
 IAtWgt=          14          14          14          12           1           1          12          12          12          12
 AtmWgt=  14.0030740  14.0030740  14.0030740  12.0000000   1.0078250   1.0078250  12.0000000  12.0000000  12.0000000  12.0000000
 NucSpn=           2           2           2           0           1           1           0           0           0           0
 AtZEff=  -0.0000000  -0.0000000  -0.0000000  -0.0000000  -0.0000000  -0.0000000  -0.0000000  -0.0000000  -0.0000000  -0.0000000
 NQMom=    2.0440000   2.0440000   2.0440000   0.0000000   0.0000000   0.0000000   0.0000000   0.0000000   0.0000000   0.0000000
 NMagM=    0.4037610   0.4037610   0.4037610   0.0000000   2.7928460   2.7928460   0.0000000   0.0000000   0.0000000   0.0000000
 AtZNuc=   7.0000000   7.0000000   7.0000000   6.0000000   1.0000000   1.0000000   6.0000000   6.0000000   6.0000000   6.0000000

  Atom        61          62          63          64          65          66          67          68          69
 IAtWgt=           1          12           1          12           1           1           1         174          16
 AtmWgt=   1.0078250  12.0000000   1.0078250  12.0000000   1.0078250   1.0078250   1.0078250 173.9390000  15.9949146
 NucSpn=           1           0           1           0           1           1           1           0           0
 AtZEff=  -0.0000000  -0.0000000  -0.0000000  -0.0000000  -0.0000000  -0.0000000  -0.0000000  -0.0000000  -0.0000000
 NQMom=    0.0000000   0.0000000   0.0000000   0.0000000   0.0000000   0.0000000   0.0000000   0.0000000   0.0000000
 NMagM=    2.7928460   0.0000000   2.7928460   0.0000000   2.7928460   2.7928460   2.7928460   0.0000000   0.0000000
 AtZNuc=   1.0000000   6.0000000   1.0000000   6.0000000   1.0000000   1.0000000   1.0000000  70.0000000   8.0000000
 Leave Link  101 at Wed Feb 12 13:46:11 2025, MaxMem= 82678120448 cpu:               5.0 elap:               0.2
 (Enter /sysapps/ubuntu-applications/gaussian-new/avx/g16/l103.exe)

 GradGradGradGradGradGradGradGradGradGradGradGradGradGradGradGradGradGrad
 Berny optimization.
 Initialization pass.
 Trust Radius=3.00D-01 FncErr=1.00D-07 GrdErr=1.00D-07 EigMax=2.50D+02 EigMin=1.00D-04
 Number of steps in this run=      2 maximum allowed number of steps=      2.
 GradGradGradGradGradGradGradGradGradGradGradGradGradGradGradGradGradGrad

 Leave Link  103 at Wed Feb 12 13:46:11 2025, MaxMem= 82678120448 cpu:               0.9 elap:               0.1
 (Enter /sysapps/ubuntu-applications/gaussian-new/avx/g16/l202.exe)
 Stoichiometry    C22H16F9N4O14S3Yb(2)
 Framework group  C1[X(C22H16F9N4O14S3Yb)]
 Deg. of freedom   201
 Full point group                 C1      NOp   1
 Largest Abelian subgroup         C1      NOp   1
 Largest concise Abelian subgroup C1      NOp   1
                         Standard orientation:                         
 ---------------------------------------------------------------------
 Center     Atomic      Atomic             Coordinates (Angstroms)
 Number     Number       Type             X           Y           Z
 ---------------------------------------------------------------------
      1          6           0        1.988224   -0.960117   -0.850485
      2          6           0        1.700226    0.035191    0.297639
      3          6           0        0.657711   -1.520915   -1.399218
      4          8           0       -0.251372   -0.791567   -1.730519
      5          8           0        0.773028    0.812748    0.275335
      6          8           0        2.580934   -0.035343    1.261025
      7          8           0        0.665376   -2.817861   -1.528985
      8          6           0        2.442366    0.926480    2.323655
      9          6           0       -0.556289   -3.419066   -1.998645
     10          1           0        3.284826    0.757324    3.001487
     11          1           0        1.487424    0.764484    2.838706
     12          1           0        2.472782    1.938005    1.897275
     13          1           0       -0.366106   -4.495272   -2.045651
     14          1           0       -0.807590   -3.021486   -2.990061
     15          1           0       -1.361434   -3.185169   -1.289769
     16          8           0       -3.078191   -1.648974   -0.493222
     17          8           0       -1.097721   -0.071467    2.489122
     18          8           0       -1.197209    2.584445   -1.118432
     19         16           0       -1.981965    3.398495   -0.163779
     20         16           0       -3.615225   -1.143856   -1.784239
     21         16           0       -0.467366   -1.403212    2.368608
     22          8           0       -2.593022    2.507296    0.857336
     23          8           0       -2.825498    4.439556   -0.711147
     24          8           0       -3.146732    0.245893   -2.000609
     25          8           0       -3.555132   -2.051609   -2.911883
     26          8           0       -0.350853   -1.782044    0.933674
     27          8           0        0.717996   -1.653593    3.171892
     28          6           0       -1.734000   -2.571370    3.005810
     29          6           0       -5.402590   -0.924127   -1.428868
     30          6           0       -0.705115    4.299763    0.802180
     31          9           0       -1.357726   -3.812047    2.739365
     32          9           0       -2.897593   -2.332005    2.427501
     33          9           0       -1.855247   -2.422893    4.313879
     34          9           0       -5.550754   -0.123562   -0.381294
     35          9           0       -5.959609   -2.094556   -1.158808
     36          9           0       -6.009806   -0.385292   -2.473602
     37          9           0        0.141736    3.446475    1.362142
     38          9           0       -1.284700    5.015303    1.754018
     39          9           0       -0.029532    5.116395    0.003824
     40          6           0        3.828388    0.258153   -1.894170
     41          6           0        4.778518   -0.956102   -1.610393
     42          6           0        6.204619   -0.602429   -1.541561
     43          6           0        4.613324   -1.910978   -2.732275
     44          6           0        2.578881   -2.806864    0.849940
     45          6           0        4.742418   -2.301172    1.738896
     46          6           0        3.471449   -2.912165    1.877392
     47          1           0        1.573233   -3.228347    0.905863
     48          1           0        5.481030   -2.317026    2.542815
     49          1           0        3.213929   -3.431354    2.800541
     50          7           0        7.327855   -0.332154   -1.578500
     51          7           0        4.487008   -2.645524   -3.616061
     52          7           0        4.313818   -1.605382   -0.368326
     53          7           0        5.132692   -1.682730    0.628409
     54          6           0        2.949417   -2.115589   -0.405295
     55          1           0        2.887834   -2.855159   -1.232778
     56          1           0        4.045462    0.576452   -2.924883
     57          6           0        3.941052    1.462734   -0.977117
     58          6           0        3.017791    2.492014   -1.219664
     59          6           0        4.899694    1.625966    0.031329
     60          6           0        3.067146    3.673572   -0.480949
     61          1           0        2.254558    2.362654   -1.991648
     62          6           0        4.956823    2.818110    0.757776
     63          1           0        5.612652    0.839335    0.282088
     64          6           0        4.047396    3.844649    0.500590
     65          1           0        2.340455    4.462960   -0.677799
     66          1           0        5.715433    2.935485    1.534257
     67          1           0        4.094552    4.774496    1.071403
     68         70           0       -1.667880    0.364864    0.010122
     69          8           0        2.524677   -0.295600   -1.966228
 ---------------------------------------------------------------------
 Rotational constants (GHZ):           0.0662161           0.0408827           0.0347419
 Leave Link  202 at Wed Feb 12 13:46:11 2025, MaxMem= 82678120448 cpu:               1.3 elap:               0.1
 (Enter /sysapps/ubuntu-applications/gaussian-new/avx/g16/l301.exe)
 General basis read from cards:  (5D, 7F)
 Centers:      10     11     12     13     14     15     47     48     49     55
 Centers:      56     61     63     65     66     67
 S 3 1.00
     Exponent=  1.3010701000D+01 Coefficients=  1.9682158000D-02
     Exponent=  1.9622572000D+00 Coefficients=  1.3796524000D-01
     Exponent=  4.4453796000D-01 Coefficients=  4.7831935000D-01
 S 1 1.00
     Exponent=  1.2194962000D-01 Coefficients=  1.0000000000D+00
 P 1 1.00
     Exponent=  8.0000000000D-01 Coefficients=  1.0000000000D+00
 ****
 Centers:       1      2      3      8      9     28     29     30     40     41
 Centers:      42     43     44     45     46     54     57     58     59     60
 Centers:      62     64
 S 5 1.00
     Exponent=  1.2384016938D+03 Coefficients=  5.4568832082D-03
     Exponent=  1.8629004992D+02 Coefficients=  4.0638409211D-02
     Exponent=  4.2251176346D+01 Coefficients=  1.8025593888D-01
     Exponent=  1.1676557932D+01 Coefficients=  4.6315121755D-01
     Exponent=  3.5930506482D+00 Coefficients=  4.4087173314D-01
 S 1 1.00
     Exponent=  4.0245147363D-01 Coefficients=  1.0000000000D+00
 S 1 1.00
     Exponent=  1.3090182668D-01 Coefficients=  1.0000000000D+00
 P 3 1.00
     Exponent=  9.4680970621D+00 Coefficients=  3.8387871728D-02
     Exponent=  2.0103545142D+00 Coefficients=  2.1117025112D-01
     Exponent=  5.4771004707D-01 Coefficients=  5.1328172114D-01
 P 1 1.00
     Exponent=  1.5268613795D-01 Coefficients=  1.0000000000D+00
 D 1 1.00
     Exponent=  8.0000000000D-01 Coefficients=  1.0000000000D+00
 ****
 Centers:      50     51     52     53
 S 5 1.00
     Exponent=  1.7128415853D+03 Coefficients= -5.3934125305D-03
     Exponent=  2.5764812677D+02 Coefficients= -4.0221581118D-02
     Exponent=  5.8458245853D+01 Coefficients= -1.7931144990D-01
     Exponent=  1.6198367905D+01 Coefficients= -4.6376317823D-01
     Exponent=  5.0052600809D+00 Coefficients= -4.4171422662D-01
 S 1 1.00
     Exponent=  5.8731856571D-01 Coefficients=  1.0000000000D+00
 S 1 1.00
     Exponent=  1.8764592253D-01 Coefficients=  1.0000000000D+00
 P 3 1.00
     Exponent=  1.3571470233D+01 Coefficients= -4.0072398852D-02
     Exponent=  2.9257372874D+00 Coefficients= -2.1807045028D-01
     Exponent=  7.9927750754D-01 Coefficients= -5.1294466049D-01
 P 1 1.00
     Exponent=  2.1954348034D-01 Coefficients=  1.0000000000D+00
 D 1 1.00
     Exponent=  1.0000000000D+00 Coefficients=  1.0000000000D+00
 ****
 Centers:       4      5      6      7     16     17     18     22     23     24
 Centers:      25     26     27     69
 S 5 1.00
     Exponent=  2.2661767785D+03 Coefficients= -5.3431809926D-03
     Exponent=  3.4087010191D+02 Coefficients= -3.9890039230D-02
     Exponent=  7.7363135167D+01 Coefficients= -1.7853911985D-01
     Exponent=  2.1479644940D+01 Coefficients= -4.6427684959D-01
     Exponent=  6.6589433124D+00 Coefficients= -4.4309745172D-01
 S 1 1.00
     Exponent=  8.0975975668D-01 Coefficients=  1.0000000000D+00
 S 1 1.00
     Exponent=  2.5530772234D-01 Coefficients=  1.0000000000D+00
 P 3 1.00
     Exponent=  1.7721504317D+01 Coefficients=  4.3394573193D-02
     Exponent=  3.8635505440D+00 Coefficients=  2.3094120765D-01
     Exponent=  1.0480920883D+00 Coefficients=  5.1375311064D-01
 P 1 1.00
     Exponent=  2.7641544411D-01 Coefficients=  1.0000000000D+00
 D 1 1.00
     Exponent=  1.2000000000D+00 Coefficients=  1.0000000000D+00
 ****
 Centers:      31     32     33     34     35     36     37     38     39
 S 5 1.00
     Exponent=  2.8948325990D+03 Coefficients= -5.3408255515D-03
     Exponent=  4.3541939120D+02 Coefficients= -3.9904258866D-02
     Exponent=  9.8843328866D+01 Coefficients= -1.7912768038D-01
     Exponent=  2.7485198001D+01 Coefficients= -4.6758090825D-01
     Exponent=  8.5405498171D+00 Coefficients= -4.4653131020D-01
 S 1 1.00
     Exponent=  1.0654578038D+00 Coefficients=  1.0000000000D+00
 S 1 1.00
     Exponent=  3.3247346748D-01 Coefficients=  1.0000000000D+00
 P 3 1.00
     Exponent=  2.2696633924D+01 Coefficients= -4.5212874436D-02
     Exponent=  4.9872339257D+00 Coefficients= -2.3754317067D-01
     Exponent=  1.3491613954D+00 Coefficients= -5.1287353587D-01
 P 1 1.00
     Exponent=  3.4829881977D-01 Coefficients=  1.0000000000D+00
 D 1 1.00
     Exponent=  1.4000000000D+00 Coefficients=  1.0000000000D+00
 ****
 Centers:      19     20     21
 S 5 1.00
     Exponent=  9.1849303010D+03 Coefficients= -2.2294387756D-03
     Exponent=  1.3815105503D+03 Coefficients= -1.6683029937D-02
     Exponent=  3.1387147580D+02 Coefficients= -7.5262436116D-02
     Exponent=  8.8053870623D+01 Coefficients= -1.9376827038D-01
     Exponent=  2.7039914905D+01 Coefficients= -1.7718020803D-01
 S 3 1.00
     Exponent=  4.5648731303D+01 Coefficients= -1.0736062573D-01
     Exponent=  4.9664522326D+00 Coefficients=  6.5066293018D-01
     Exponent=  2.0116242047D+00 Coefficients=  5.9712155354D-01
 S 1 1.00
     Exponent=  3.5661077013D-01 Coefficients=  1.0000000000D+00
 S 1 1.00
     Exponent=  1.3507221477D-01 Coefficients=  1.0000000000D+00
 P 5 1.00
     Exponent=  2.6198233439D+02 Coefficients= -9.2729929822D-03
     Exponent=  6.1306894736D+01 Coefficients= -6.6547669241D-02
     Exponent=  1.9103729887D+01 Coefficients= -2.4828595903D-01
     Exponent=  6.6567720378D+00 Coefficients= -4.8703847402D-01
     Exponent=  2.3959635161D+00 Coefficients= -3.9337850312D-01
 P 1 1.00
     Exponent=  6.1776161679D-01 Coefficients=  1.0000000000D+00
 P 1 1.00
     Exponent=  1.6993376871D-01 Coefficients=  1.0000000000D+00
 D 1 1.00
     Exponent=  5.5000000000D-01 Coefficients=  1.0000000000D+00
 ****
 Centers:      68
 S 5 1.00
     Exponent=  9.1972903000D+04 Coefficients=  5.1000000000D-05
     Exponent=  1.3787371000D+04 Coefficients=  3.8600000000D-04
     Exponent=  3.1236135000D+03 Coefficients=  1.8440000000D-03
     Exponent=  8.7147540000D+02 Coefficients=  5.3560000000D-03
     Exponent=  2.5046300000D+02 Coefficients=  8.8590000000D-03
 S 1 1.00
     Exponent=  5.8282700000D+01 Coefficients=  1.0000000000D+00
 S 1 1.00
     Exponent=  4.1630500000D+01 Coefficients=  1.0000000000D+00
 S 1 1.00
     Exponent=  2.0216400000D+01 Coefficients=  1.0000000000D+00
 S 1 1.00
     Exponent=  4.9972000000D+00 Coefficients=  1.0000000000D+00
 S 1 1.00
     Exponent=  2.4822000000D+00 Coefficients=  1.0000000000D+00
 S 1 1.00
     Exponent=  9.1790000000D-01 Coefficients=  1.0000000000D+00
 S 1 1.00
     Exponent=  3.8530000000D-01 Coefficients=  1.0000000000D+00
 S 1 1.00
     Exponent=  6.1400000000D-02 Coefficients=  1.0000000000D+00
 S 1 1.00
     Exponent=  2.5000000000D-02 Coefficients=  1.0000000000D+00
 P 3 1.00
     Exponent=  1.2274108000D+01 Coefficients= -1.5252141000D-01
     Exponent=  1.0695631000D+01 Coefficients= -2.0243492000D-01
     Exponent=  2.0359782000D+00 Coefficients= -1.9621046000D-01
 P 6 1.00
     Exponent=  1.4975567000D+03 Coefficients= -1.0182934000D-03
     Exponent=  3.7504101000D+02 Coefficients= -6.0919401000D-03
     Exponent=  1.2869727000D+02 Coefficients= -1.7077693000D-02
     Exponent=  4.5270759000D+01 Coefficients= -3.5655508000D-02
     Exponent=  1.4906971000D+01 Coefficients=  2.3732226000D-01
     Exponent=  5.6450858000D+00 Coefficients= -3.0559689000D-01
 P 1 1.00
     Exponent=  3.6752106000D+00 Coefficients=  1.0000000000D+00
 P 1 1.00
     Exponent=  1.3296961000D+00 Coefficients=  1.0000000000D+00
 P 1 1.00
     Exponent=  5.5338966000D-01 Coefficients=  1.0000000000D+00
 P 1 1.00
     Exponent=  2.2382350000D-01 Coefficients=  1.0000000000D+00
 P 1 1.00
     Exponent=  6.8350467650D-02 Coefficients=  1.0000000000D+00
 P 1 1.00
     Exponent=  2.5355670803D-02 Coefficients=  1.0000000000D+00
 D 6 1.00
     Exponent=  4.6976060000D+02 Coefficients=  1.9840000000D-03
     Exponent=  1.4261280000D+02 Coefficients=  1.6013000000D-02
     Exponent=  5.5126700000D+01 Coefficients=  6.3153000000D-02
     Exponent=  2.3441500000D+01 Coefficients=  1.3780000000D-01
     Exponent=  9.4951000000D+00 Coefficients=  2.8549800000D-01
     Exponent=  4.5792000000D+00 Coefficients=  4.3830900000D-01
 D 1 1.00
     Exponent=  2.1646000000D+00 Coefficients=  1.0000000000D+00
 D 1 1.00
     Exponent=  9.2380000000D-01 Coefficients=  1.0000000000D+00
 D 1 1.00
     Exponent=  3.1070000000D-01 Coefficients=  1.0000000000D+00
 D 1 1.00
     Exponent=  9.1400000000D-02 Coefficients=  1.0000000000D+00
 F 5 1.00
     Exponent=  1.4202930000D+02 Coefficients=  5.9570000000D-03
     Exponent=  5.1086200000D+01 Coefficients=  5.3180000000D-02
     Exponent=  2.2874100000D+01 Coefficients=  1.7807600000D-01
     Exponent=  1.0502500000D+01 Coefficients=  3.0060000000D-01
     Exponent=  4.7872000000D+00 Coefficients=  3.5034200000D-01
 F 1 1.00
     Exponent=  2.1088000000D+00 Coefficients=  1.0000000000D+00
 F 1 1.00
     Exponent=  8.6090000000D-01 Coefficients=  1.0000000000D+00
 F 1 1.00
     Exponent=  3.0600000000D-01 Coefficients=  1.0000000000D+00
 G 1 1.00
     Exponent=  5.1330000000D-01 Coefficients=  1.0000000000D+00
 ****
 ======================================================================================================
                                       Pseudopotential Parameters
 ======================================================================================================
  Center     Atomic      Valence      Angular      Power
  Number     Number     Electrons     Momentum     of R      Exponent        Coefficient   SO-Coeffient
 ======================================================================================================
    1          6
                                   No pseudopotential on this center.
    2          6
                                   No pseudopotential on this center.
    3          6
                                   No pseudopotential on this center.
    4          8
                                   No pseudopotential on this center.
    5          8
                                   No pseudopotential on this center.
    6          8
                                   No pseudopotential on this center.
    7          8
                                   No pseudopotential on this center.
    8          6
                                   No pseudopotential on this center.
    9          6
                                   No pseudopotential on this center.
   10          1
                                   No pseudopotential on this center.
   11          1
                                   No pseudopotential on this center.
   12          1
                                   No pseudopotential on this center.
   13          1
                                   No pseudopotential on this center.
   14          1
                                   No pseudopotential on this center.
   15          1
                                   No pseudopotential on this center.
   16          8
                                   No pseudopotential on this center.
   17          8
                                   No pseudopotential on this center.
   18          8
                                   No pseudopotential on this center.
   19         16
                                   No pseudopotential on this center.
   20         16
                                   No pseudopotential on this center.
   21         16
                                   No pseudopotential on this center.
   22          8
                                   No pseudopotential on this center.
   23          8
                                   No pseudopotential on this center.
   24          8
                                   No pseudopotential on this center.
   25          8
                                   No pseudopotential on this center.
   26          8
                                   No pseudopotential on this center.
   27          8
                                   No pseudopotential on this center.
   28          6
                                   No pseudopotential on this center.
   29          6
                                   No pseudopotential on this center.
   30          6
                                   No pseudopotential on this center.
   31          9
                                   No pseudopotential on this center.
   32          9
                                   No pseudopotential on this center.
   33          9
                                   No pseudopotential on this center.
   34          9
                                   No pseudopotential on this center.
   35          9
                                   No pseudopotential on this center.
   36          9
                                   No pseudopotential on this center.
   37          9
                                   No pseudopotential on this center.
   38          9
                                   No pseudopotential on this center.
   39          9
                                   No pseudopotential on this center.
   40          6
                                   No pseudopotential on this center.
   41          6
                                   No pseudopotential on this center.
   42          6
                                   No pseudopotential on this center.
   43          6
                                   No pseudopotential on this center.
   44          6
                                   No pseudopotential on this center.
   45          6
                                   No pseudopotential on this center.
   46          6
                                   No pseudopotential on this center.
   47          1
                                   No pseudopotential on this center.
   48          1
                                   No pseudopotential on this center.
   49          1
                                   No pseudopotential on this center.
   50          7
                                   No pseudopotential on this center.
   51          7
                                   No pseudopotential on this center.
   52          7
                                   No pseudopotential on this center.
   53          7
                                   No pseudopotential on this center.
   54          6
                                   No pseudopotential on this center.
   55          1
                                   No pseudopotential on this center.
   56          1
                                   No pseudopotential on this center.
   57          6
                                   No pseudopotential on this center.
   58          6
                                   No pseudopotential on this center.
   59          6
                                   No pseudopotential on this center.
   60          6
                                   No pseudopotential on this center.
   61          1
                                   No pseudopotential on this center.
   62          6
                                   No pseudopotential on this center.
   63          1
                                   No pseudopotential on this center.
   64          6
                                   No pseudopotential on this center.
   65          1
                                   No pseudopotential on this center.
   66          1
                                   No pseudopotential on this center.
   67          1
                                   No pseudopotential on this center.
   68         70           42
                                      H and up 
                                                     2        1.0000000        0.00000000    0.00000000
                                      S - H
                                                     2       32.4244840      891.01377700    0.00000000
                                      P - H
                                                     2       18.6562320      264.03695300    0.00000000
                                      D - H
                                                     2       10.4902220       73.92391900    0.00000000
                                      F - H
                                                     2       20.7741830      -39.59217300    0.00000000
                                      G - H
                                                     2       28.4310280      -34.63863800    0.00000000
   69          8
                                   No pseudopotential on this center.
 ======================================================================================================
 Ernie: Thresh=  0.10000D-02 Tol=  0.10000D-05 Strict=F.
 There are   991 symmetry adapted cartesian basis functions of A   symmetry.
 There are   916 symmetry adapted basis functions of A   symmetry.
   916 basis functions,  1662 primitive gaussians,   991 cartesian basis functions
   230 alpha electrons      229 beta electrons
       nuclear repulsion energy     11754.3957609727 Hartrees.
 IExCor= 7252 DFT=T Ex+Corr=MN15 ExCW=0 ScaHFX=  0.440000
 ScaDFX=  1.000000  1.000000  1.000000  1.000000 ScalE2=  1.000000  1.000000
 IRadAn=      5 IRanWt=     -1 IRanGd=            0 ICorTp=0 IEmpDi=  4
 NAtoms=   69 NActive=   69 NUniq=   69 SFac= 1.00D+00 NAtFMM=   60 NAOKFM=T Big=T
 Integral buffers will be    131072 words long.
 Raffenetti 2 integral format.
 Two-electron integral symmetry is turned on.
 Force inversion solution in PCM.
 ------------------------------------------------------------------------------
 Polarizable Continuum Model (PCM)
 =================================
 Model                : PCM.
 Atomic radii         : SMD-Coulomb.
 Polarization charges : Total charges.
 Charge compensation  : None.
 Solution method      : Matrix inversion.
 Cavity type          : VdW (van der Waals Surface) (Alpha=1.000).
 Cavity algorithm     : GePol (No added spheres)
                        Default sphere list used, NSphG=   69.
                        Lebedev-Laikov grids with approx.  5.0 points / Ang**2.
                        Smoothing algorithm: York/Karplus (Gamma=1.0000).
                        Polarization charges: spherical gaussians, with
                                              point-specific exponents (IZeta= 3).
                        Self-potential: point-specific (ISelfS= 7).
                        Self-field    : sphere-specific E.n sum rule (ISelfD= 2).
 1st derivatives      : Analytical E(r).r(x)/FMM algorithm (CHGder, D1EAlg=3).
                        Cavity 1st derivative terms included.
 2nd derivatives      : Analytical E(r).r(xy)/FMM algorithm (CHGder, D2EAlg=3).
                        Cavity 2nd derivative terms included.
 Solvent              : DiChloroEthane, Eps=  10.125000 Eps(inf)=   2.087447
 ------------------------------------------------------------------------------
 GePol: Number of generator spheres                  =      69
 GePol: Total number of spheres                      =      69
 GePol: Number of exposed spheres                    =      67 ( 97.10%)
 GePol: Number of points                             =    4755
 GePol: Average weight of points                     =       0.13
 GePol: Minimum weight of points                     =   0.52D-09
 GePol: Maximum weight of points                     =    0.21501
 GePol: Number of points with low weight             =     280
 GePol: Fraction of low-weight points (<1% of avg)   =       5.89%
 GePol: Cavity surface area                          =    625.762 Ang**2
 GePol: Cavity volume                                =    774.227 Ang**3
 ------------------------------------------------------------------------------
 Atomic radii for non-electrostatic terms: SMD-CDS.
 ------------------------------------------------------------------------------
 PCM non-electrostatic energy =         0.0072176461 Hartrees.
 Nuclear repulsion after PCM non-electrostatic terms =    11754.4029786187 Hartrees.
 Leave Link  301 at Wed Feb 12 13:46:11 2025, MaxMem= 82678120448 cpu:               4.9 elap:               0.2
 (Enter /sysapps/ubuntu-applications/gaussian-new/avx/g16/l302.exe)
 NPDir=0 NMtPBC=     1 NCelOv=     1 NCel=       1 NClECP=     1 NCelD=      1
         NCelK=      1 NCelE2=     1 NClLst=     1 CellRange=     0.0.
 One-electron integrals computed using PRISM.
 One-electron integral symmetry used in STVInt
   1 Symmetry operations used in ECPInt.
 ECPInt:  NShTT=   77815 NPrTT=  297642 LenC2=   61379 LenP2D=  143472.
 LDataN:  DoStor=T MaxTD1= 9 Len=  602
 NBasis=   916 RedAO= T EigKep=  2.06D-04  NBF=   916
 NBsUse=   916 1.00D-06 EigRej= -1.00D+00 NBFU=   916
 Precomputing XC quadrature grid using
 IXCGrd= 4 IRadAn=           5 IRanWt=          -1 IRanGd=           0 AccXCQ= 0.00D+00.
 Defaulting to unpruned grid for atomic number  70.
 Generated NRdTot=       0 NPtTot=           0 NUsed=           0 NTot=          32
 NSgBfM=   938   937   938   938   938 MxSgAt=    69 MxSgA2=    69.
 Leave Link  302 at Wed Feb 12 13:46:14 2025, MaxMem= 82678120448 cpu:              62.3 elap:               2.6
 (Enter /sysapps/ubuntu-applications/gaussian-new/avx/g16/l303.exe)
 DipDrv:  MaxL=1.
 Leave Link  303 at Wed Feb 12 13:46:14 2025, MaxMem= 82678120448 cpu:               5.7 elap:               0.3
 (Enter /sysapps/ubuntu-applications/gaussian-new/avx/g16/l401.exe)
 ExpMin= 2.50D-02 ExpMax= 9.20D+04 ExpMxC= 1.38D+04 IAcc=3 IRadAn=         5 AccDes= 0.00D+00
 Harris functional with IExCor= 1009 and IRadAn=       5 diagonalized for initial guess.
 HarFok:  IExCor= 1009 AccDes= 0.00D+00 IRadAn=         5 IDoV= 1 UseB2=F ITyADJ=14
 ICtDFT=  3500011 ScaDFX=  1.000000  1.000000  1.000000  1.000000
 Defaulting to unpruned grid for atomic number  70.
 FoFCou: FMM=F IPFlag=           0 FMFlag=      100000 FMFlg1=        2001
         NFxFlg=           0 DoJE=T BraDBF=F KetDBF=T FulRan=T
         wScrn=  0.000000 ICntrl=       500 IOpCl=  0 I1Cent=   200000004 NGrid=           0
         NMat0=    1 NMatS0=      1 NMatT0=    0 NMatD0=    1 NMtDS0=    0 NMtDT0=    0
 Petite list used in FoFCou.
 Harris En= -5369.62571710701    
 JPrj=0 DoOrth=F DoCkMO=F.
 Initial guess <Sx>= 0.0000 <Sy>= 0.0000 <Sz>= 0.5000 <S**2>= 0.7500 S= 0.5000
 Leave Link  401 at Wed Feb 12 13:46:20 2025, MaxMem= 82678120448 cpu:             147.4 elap:               6.2
 (Enter /sysapps/ubuntu-applications/gaussian-new/avx/g16/l502.exe)
 Integral symmetry usage will be decided dynamically.
 UHF open shell SCF:
 Using DIIS extrapolation, IDIIS=  1040.
 NGot= 82678120448 LenX= 82676122383 LenY= 82675139311
 Requested convergence on RMS density matrix=1.00D-08 within 128 cycles.
 Requested convergence on MAX density matrix=1.00D-06.
 Requested convergence on             energy=1.00D-06.
 No special actions if energy rises.
 Fock matrices will be formed incrementally for  20 cycles.

 Cycle   1  Pass 1  IDiag  1:
 FoFJK:  IHMeth= 1 ICntrl=       0 DoSepK=F KAlg= 0 I1Cent=           0 FoldK=F
 IRaf= 880000000 NMat=       1 IRICut=       1 DoRegI=T DoRafI=F ISym2E= 0 IDoP0=0 IntGTp=1.
 FoFCou: FMM=T IPFlag=           0 FMFlag=      100000 FMFlg1=        2001
         NFxFlg=           0 DoJE=F BraDBF=F KetDBF=F FulRan=T
         wScrn=  0.000000 ICntrl=         0 IOpCl=  1 I1Cent=           0 NGrid=           0
         NMat0=    1 NMatS0=      1 NMatT0=    0 NMatD0=    1 NMtDS0=    0 NMtDT0=    0
 Symmetry not used in FoFCou.
 FMM levels:  10  Number of levels for PrismC:   9
 Defaulting to unpruned grid for atomic number  70.
 Defaulting to unpruned grid for atomic number  70.
 Defaulting to unpruned grid for atomic number  70.
 Defaulting to unpruned grid for atomic number  70.
 Defaulting to unpruned grid for atomic number  70.
 Defaulting to unpruned grid for atomic number  70.
 Defaulting to unpruned grid for atomic number  70.
 Defaulting to unpruned grid for atomic number  70.
 Defaulting to unpruned grid for atomic number  70.
 Defaulting to unpruned grid for atomic number  70.
 Defaulting to unpruned grid for atomic number  70.
 Defaulting to unpruned grid for atomic number  70.
 Defaulting to unpruned grid for atomic number  70.
 Defaulting to unpruned grid for atomic number  70.
 Defaulting to unpruned grid for atomic number  70.
 Defaulting to unpruned grid for atomic number  70.
 Defaulting to unpruned grid for atomic number  70.
 Defaulting to unpruned grid for atomic number  70.
 Defaulting to unpruned grid for atomic number  70.
 Defaulting to unpruned grid for atomic number  70.
 Defaulting to unpruned grid for atomic number  70.
 Defaulting to unpruned grid for atomic number  70.
 Defaulting to unpruned grid for atomic number  70.
 Defaulting to unpruned grid for atomic number  70.
 Inv3:  Mode=1 IEnd=    67830075.
 Iteration    1 A*A^-1 deviation from unit magnitude is 8.88D-15 for   4743.
 Iteration    1 A*A^-1 deviation from orthogonality  is 4.73D-15 for   4720   4212.
 Iteration    1 A^-1*A deviation from unit magnitude is 8.44D-15 for   4736.
 Iteration    1 A^-1*A deviation from orthogonality  is 4.90D-15 for   4732   4692.
 E= -5363.84748679696    
 DIIS: error= 1.83D-01 at cycle   1 NSaved=   1.
 NSaved= 1 IEnMin= 1 EnMin= -5363.84748679696     IErMin= 1 ErrMin= 1.83D-01
 ErrMax= 1.83D-01  0.00D+00 EMaxC= 1.00D-01 BMatC= 1.38D+02 BMatP= 1.38D+02
 IDIUse=3 WtCom= 0.00D+00 WtEn= 1.00D+00
 Coeff-Com:  0.100D+01
 Coeff-En:   0.100D+01
 Coeff:      0.100D+01
 Gap=     0.281 Goal=   None    Shift=    0.000
 Gap=     0.125 Goal=   None    Shift=    0.000
 GapD=    0.125 DampG=1.000 DampE=0.125 DampFc=0.1250 IDamp=-1.
 Damping current iteration by 1.25D-01
 RMSDP=1.98D-02 MaxDP=3.18D+00              OVMax= 9.89D-01

 Cycle   2  Pass 1  IDiag  1:
 RMSU=  2.47D-03    CP:  9.96D-01
 E= -5365.27285297405     Delta-E=       -1.425366177091 Rises=F Damp=T
 DIIS: error= 7.06D-02 at cycle   2 NSaved=   2.
 NSaved= 2 IEnMin= 2 EnMin= -5365.27285297405     IErMin= 2 ErrMin= 7.06D-02
 ErrMax= 7.06D-02  0.00D+00 EMaxC= 1.00D-01 BMatC= 2.71D+01 BMatP= 1.38D+02
 IDIUse=3 WtCom= 2.94D-01 WtEn= 7.06D-01
 Coeff-Com: -0.613D+00 0.161D+01
 Coeff-En:   0.244D+00 0.756D+00
 Coeff:     -0.788D-02 0.101D+01
 Gap=    -0.124 Goal=   None    Shift=    0.000
 Gap=     0.183 Goal=   None    Shift=    0.000
 RMSDP=4.06D-03 MaxDP=4.53D-01 DE=-1.43D+00 OVMax= 9.61D-01

 Cycle   3  Pass 1  IDiag  1:
 RMSU=  3.59D-03    CP:  9.74D-01  2.47D-01
 E= -5356.68080928992     Delta-E=        8.592043684133 Rises=F Damp=F
 DIIS: error= 6.69D-02 at cycle   3 NSaved=   3.
 NSaved= 3 IEnMin= 2 EnMin= -5365.27285297405     IErMin= 3 ErrMin= 6.69D-02
 ErrMax= 6.69D-02  0.00D+00 EMaxC= 1.00D-01 BMatC= 4.78D+01 BMatP= 2.71D+01
 IDIUse=2 WtCom= 0.00D+00 WtEn= 1.00D+00
 EnCoef did     1 forward-backward iterations
 Coeff-En:   0.611D-01 0.743D+00 0.196D+00
 Coeff:      0.611D-01 0.743D+00 0.196D+00
 Gap=     0.020 Goal=   None    Shift=    0.000
 Gap=     0.066 Goal=   None    Shift=    0.000
 RMSDP=3.00D-03 MaxDP=4.03D-01 DE= 8.59D+00 OVMax= 9.98D-01

 Cycle   4  Pass 1  IDiag  1:
 RMSU=  2.27D-03    CP:  9.74D-01  3.37D-01  4.57D-01
 E= -5363.84561812247     Delta-E=       -7.164808832549 Rises=F Damp=F
 DIIS: error= 1.52D-01 at cycle   4 NSaved=   4.
 NSaved= 4 IEnMin= 2 EnMin= -5365.27285297405     IErMin= 3 ErrMin= 6.69D-02
 ErrMax= 1.52D-01  0.00D+00 EMaxC= 1.00D-01 BMatC= 1.06D+02 BMatP= 2.71D+01
 IDIUse=2 WtCom= 0.00D+00 WtEn= 1.00D+00
 EnCoef did   100 forward-backward iterations
 Coeff-En:   0.470D+00 0.102D-01 0.368D-01 0.483D+00
 Coeff:      0.470D+00 0.102D-01 0.368D-01 0.483D+00
 Gap=     0.128 Goal=   None    Shift=    0.000
 Gap=     0.097 Goal=   None    Shift=    0.000
 RMSDP=1.95D-03 MaxDP=2.81D-01 DE=-7.16D+00 OVMax= 9.54D-01

 Cycle   5  Pass 1  IDiag  1:
 RMSU=  1.09D-03    CP:  9.85D-01  2.20D-01  4.63D-01  3.05D-01
 E= -5368.15963078455     Delta-E=       -4.314012662084 Rises=F Damp=F
 DIIS: error= 3.15D-02 at cycle   5 NSaved=   5.
 NSaved= 5 IEnMin= 5 EnMin= -5368.15963078455     IErMin= 5 ErrMin= 3.15D-02
 ErrMax= 3.15D-02  0.00D+00 EMaxC= 1.00D-01 BMatC= 6.79D+00 BMatP= 2.71D+01
 IDIUse=3 WtCom= 6.85D-01 WtEn= 3.15D-01
 Coeff-Com: -0.267D+00 0.566D+00 0.131D-01 0.737D-01 0.614D+00
 Coeff-En:   0.000D+00 0.000D+00 0.000D+00 0.184D+00 0.816D+00
 Coeff:     -0.183D+00 0.388D+00 0.900D-02 0.108D+00 0.678D+00
 Gap=     0.248 Goal=   None    Shift=    0.000
 Gap=     0.126 Goal=   None    Shift=    0.000
 RMSDP=1.09D-03 MaxDP=8.02D-02 DE=-4.31D+00 OVMax= 1.17D-01

 Cycle   6  Pass 1  IDiag  1:
 RMSU=  7.30D-04    CP:  9.83D-01  1.36D-01  3.16D-01  3.04D-01  4.65D-01
 E= -5368.33521896906     Delta-E=       -0.175588184507 Rises=F Damp=F
 DIIS: error= 3.07D-02 at cycle   6 NSaved=   6.
 NSaved= 6 IEnMin= 6 EnMin= -5368.33521896906     IErMin= 6 ErrMin= 3.07D-02
 ErrMax= 3.07D-02  0.00D+00 EMaxC= 1.00D-01 BMatC= 5.88D+00 BMatP= 6.79D+00
 IDIUse=3 WtCom= 6.93D-01 WtEn= 3.07D-01
 EnCoef did     2 forward-backward iterations
 Coeff-Com: -0.326D+00 0.489D+00-0.527D-02 0.235D-01 0.385D+00 0.433D+00
 Coeff-En:   0.000D+00 0.000D+00 0.000D+00 0.153D+00 0.273D+00 0.573D+00
 Coeff:     -0.226D+00 0.339D+00-0.365D-02 0.632D-01 0.351D+00 0.476D+00
 Gap=     0.204 Goal=   None    Shift=    0.000
 Gap=     0.122 Goal=   None    Shift=    0.000
 RMSDP=5.92D-04 MaxDP=4.13D-02 DE=-1.76D-01 OVMax= 6.17D-02

 Cycle   7  Pass 1  IDiag  1:
 RMSU=  3.06D-04    CP:  9.83D-01  1.97D-01  3.75D-01  3.57D-01  6.81D-01
                    CP:  5.28D-01
 E= -5368.63554919818     Delta-E=       -0.300330229127 Rises=F Damp=F
 DIIS: error= 2.01D-02 at cycle   7 NSaved=   7.
 NSaved= 7 IEnMin= 7 EnMin= -5368.63554919818     IErMin= 7 ErrMin= 2.01D-02
 ErrMax= 2.01D-02  0.00D+00 EMaxC= 1.00D-01 BMatC= 2.33D+00 BMatP= 5.88D+00
 IDIUse=3 WtCom= 7.99D-01 WtEn= 2.01D-01
 Coeff-Com: -0.235D+00 0.332D+00-0.435D-02 0.218D-01 0.200D-01 0.186D+00
 Coeff-Com:  0.679D+00
 Coeff-En:   0.000D+00 0.000D+00 0.000D+00 0.787D-01 0.000D+00 0.000D+00
 Coeff-En:   0.921D+00
 Coeff:     -0.188D+00 0.265D+00-0.347D-02 0.333D-01 0.160D-01 0.149D+00
 Coeff:      0.728D+00
 Gap=     0.195 Goal=   None    Shift=    0.000
 Gap=     0.132 Goal=   None    Shift=    0.000
 RMSDP=2.37D-04 MaxDP=2.78D-02 DE=-3.00D-01 OVMax= 3.08D-02

 Cycle   8  Pass 1  IDiag  1:
 RMSU=  1.94D-04    CP:  9.81D-01  1.85D-01  3.58D-01  3.67D-01  6.40D-01
                    CP:  6.47D-01  7.93D-01
 E= -5368.69700686844     Delta-E=       -0.061457670259 Rises=F Damp=F
 DIIS: error= 1.38D-02 at cycle   8 NSaved=   8.
 NSaved= 8 IEnMin= 8 EnMin= -5368.69700686844     IErMin= 8 ErrMin= 1.38D-02
 ErrMax= 1.38D-02  0.00D+00 EMaxC= 1.00D-01 BMatC= 1.19D+00 BMatP= 2.33D+00
 IDIUse=3 WtCom= 8.62D-01 WtEn= 1.38D-01
 Coeff-Com: -0.976D-01 0.146D+00-0.275D-02 0.180D-01-0.236D+00-0.217D+00
 Coeff-Com:  0.558D+00 0.831D+00
 Coeff-En:   0.000D+00 0.000D+00 0.000D+00 0.449D-01 0.000D+00 0.000D+00
 Coeff-En:   0.000D+00 0.955D+00
 Coeff:     -0.841D-01 0.125D+00-0.237D-02 0.217D-01-0.203D+00-0.187D+00
 Coeff:      0.481D+00 0.848D+00
 Gap=     0.204 Goal=   None    Shift=    0.000
 Gap=     0.125 Goal=   None    Shift=    0.000
 RMSDP=2.56D-04 MaxDP=3.83D-02 DE=-6.15D-02 OVMax= 3.42D-02

 Cycle   9  Pass 1  IDiag  1:
 RMSU=  1.17D-04    CP:  9.81D-01  2.10D-01  3.49D-01  4.07D-01  6.34D-01
                    CP:  6.14D-01  1.42D+00  8.99D-01
 E= -5368.76709924684     Delta-E=       -0.070092378399 Rises=F Damp=F
 DIIS: error= 6.60D-03 at cycle   9 NSaved=   9.
 NSaved= 9 IEnMin= 9 EnMin= -5368.76709924684     IErMin= 9 ErrMin= 6.60D-03
 ErrMax= 6.60D-03  0.00D+00 EMaxC= 1.00D-01 BMatC= 2.55D-01 BMatP= 1.19D+00
 IDIUse=3 WtCom= 9.34D-01 WtEn= 6.60D-02
 Coeff-Com: -0.108D-01 0.299D-01-0.403D-03 0.108D-01-0.135D+00-0.199D+00
 Coeff-Com: -0.676D-01 0.551D+00 0.822D+00
 Coeff-En:   0.000D+00 0.000D+00 0.000D+00 0.000D+00 0.000D+00 0.000D+00
 Coeff-En:   0.000D+00 0.000D+00 0.100D+01
 Coeff:     -0.101D-01 0.279D-01-0.376D-03 0.101D-01-0.126D+00-0.186D+00
 Coeff:     -0.631D-01 0.515D+00 0.834D+00
 Gap=     0.205 Goal=   None    Shift=    0.000
 Gap=     0.125 Goal=   None    Shift=    0.000
 RMSDP=1.49D-04 MaxDP=2.56D-02 DE=-7.01D-02 OVMax= 1.32D-02

 Cycle  10  Pass 1  IDiag  1:
 RMSU=  8.30D-05    CP:  9.80D-01  2.10D-01  3.41D-01  4.28D-01  5.98D-01
                    CP:  6.53D-01  1.60D+00  1.33D+00  8.40D-01
 E= -5368.78449292914     Delta-E=       -0.017393682292 Rises=F Damp=F
 DIIS: error= 1.09D-03 at cycle  10 NSaved=  10.
 NSaved=10 IEnMin=10 EnMin= -5368.78449292914     IErMin=10 ErrMin= 1.09D-03
 ErrMax= 1.09D-03  0.00D+00 EMaxC= 1.00D-01 BMatC= 1.23D-02 BMatP= 2.55D-01
 IDIUse=3 WtCom= 9.89D-01 WtEn= 1.09D-02
 Coeff-Com:  0.114D-01-0.779D-02-0.597D-03 0.222D-02-0.119D-02-0.425D-01
 Coeff-Com: -0.204D+00 0.274D-01 0.516D+00 0.699D+00
 Coeff-En:   0.000D+00 0.000D+00 0.000D+00 0.000D+00 0.000D+00 0.000D+00
 Coeff-En:   0.000D+00 0.000D+00 0.000D+00 0.100D+01
 Coeff:      0.113D-01-0.770D-02-0.590D-03 0.219D-02-0.118D-02-0.421D-01
 Coeff:     -0.201D+00 0.271D-01 0.510D+00 0.702D+00
 Gap=     0.158 Goal=   None    Shift=    0.000
 Gap=     0.081 Goal=   None    Shift=    0.000
 RMSDP=7.25D-05 MaxDP=7.78D-03 DE=-1.74D-02 OVMax= 1.03D-02

 Cycle  11  Pass 1  IDiag  1:
 RMSU=  3.15D-05    CP:  9.80D-01  2.15D-01  3.38D-01  4.39D-01  5.93D-01
                    CP:  6.49D-01  1.69D+00  1.44D+00  1.19D+00  8.37D-01
 E= -5368.78613525971     Delta-E=       -0.001642330573 Rises=F Damp=F
 DIIS: error= 6.16D-04 at cycle  11 NSaved=  11.
 NSaved=11 IEnMin=11 EnMin= -5368.78613525971     IErMin=11 ErrMin= 6.16D-04
 ErrMax= 6.16D-04  0.00D+00 EMaxC= 1.00D-01 BMatC= 2.94D-03 BMatP= 1.23D-02
 IDIUse=3 WtCom= 9.94D-01 WtEn= 6.16D-03
 Coeff-Com:  0.359D-02-0.193D-02-0.242D-03-0.369D-03 0.946D-02-0.116D-02
 Coeff-Com: -0.750D-01-0.285D-01 0.171D+00 0.380D+00 0.543D+00
 Coeff-En:   0.000D+00 0.000D+00 0.000D+00 0.000D+00 0.000D+00 0.000D+00
 Coeff-En:   0.000D+00 0.000D+00 0.000D+00 0.108D+00 0.892D+00
 Coeff:      0.357D-02-0.191D-02-0.240D-03-0.367D-03 0.940D-02-0.116D-02
 Coeff:     -0.746D-01-0.283D-01 0.170D+00 0.378D+00 0.545D+00
 Gap=     0.164 Goal=   None    Shift=    0.000
 Gap=     0.087 Goal=   None    Shift=    0.000
 RMSDP=2.20D-05 MaxDP=2.09D-03 DE=-1.64D-03 OVMax= 1.79D-03

 Cycle  12  Pass 1  IDiag  1:
 RMSU=  1.19D-05    CP:  9.80D-01  2.14D-01  3.38D-01  4.35D-01  5.98D-01
                    CP:  6.42D-01  1.67D+00  1.43D+00  1.17D+00  8.66D-01
                    CP:  6.40D-01
 E= -5368.78643126237     Delta-E=       -0.000296002660 Rises=F Damp=F
 DIIS: error= 2.49D-04 at cycle  12 NSaved=  12.
 NSaved=12 IEnMin=12 EnMin= -5368.78643126237     IErMin=12 ErrMin= 2.49D-04
 ErrMax= 2.49D-04  0.00D+00 EMaxC= 1.00D-01 BMatC= 3.80D-04 BMatP= 2.94D-03
 IDIUse=3 WtCom= 9.98D-01 WtEn= 2.49D-03
 Coeff-Com:  0.251D-03 0.413D-04-0.167D-03-0.156D-03 0.118D-02 0.188D-02
 Coeff-Com:  0.905D-03-0.291D-02 0.138D-01 0.743D-01 0.224D+00 0.687D+00
 Coeff-En:   0.000D+00 0.000D+00 0.000D+00 0.000D+00 0.000D+00 0.000D+00
 Coeff-En:   0.000D+00 0.000D+00 0.000D+00 0.000D+00 0.000D+00 0.100D+01
 Coeff:      0.251D-03 0.412D-04-0.166D-03-0.156D-03 0.118D-02 0.188D-02
 Coeff:      0.903D-03-0.290D-02 0.138D-01 0.741D-01 0.224D+00 0.688D+00
 Gap=     0.166 Goal=   None    Shift=    0.000
 Gap=     0.089 Goal=   None    Shift=    0.000
 RMSDP=6.22D-06 MaxDP=8.91D-04 DE=-2.96D-04 OVMax= 6.38D-04

 Cycle  13  Pass 1  IDiag  1:
 RMSU=  4.49D-06    CP:  9.80D-01  2.13D-01  3.38D-01  4.35D-01  5.98D-01
                    CP:  6.44D-01  1.66D+00  1.42D+00  1.16D+00  8.81D-01
                    CP:  7.01D-01  8.81D-01
 E= -5368.78645712247     Delta-E=       -0.000025860099 Rises=F Damp=F
 DIIS: error= 3.40D-05 at cycle  13 NSaved=  13.
 NSaved=13 IEnMin=13 EnMin= -5368.78645712247     IErMin=13 ErrMin= 3.40D-05
 ErrMax= 3.40D-05  0.00D+00 EMaxC= 1.00D-01 BMatC= 1.58D-05 BMatP= 3.80D-04
 IDIUse=1 WtCom= 1.00D+00 WtEn= 0.00D+00
 Coeff-Com: -0.125D-03 0.157D-03-0.710D-04-0.534D-04-0.229D-03 0.111D-02
 Coeff-Com:  0.660D-02 0.130D-02-0.683D-02 0.101D-01 0.708D-01 0.337D+00
 Coeff-Com:  0.580D+00
 Coeff:     -0.125D-03 0.157D-03-0.710D-04-0.534D-04-0.229D-03 0.111D-02
 Coeff:      0.660D-02 0.130D-02-0.683D-02 0.101D-01 0.708D-01 0.337D+00
 Coeff:      0.580D+00
 Gap=     0.166 Goal=   None    Shift=    0.000
 Gap=     0.089 Goal=   None    Shift=    0.000
 RMSDP=2.80D-06 MaxDP=4.34D-04 DE=-2.59D-05 OVMax= 8.22D-04

 Cycle  14  Pass 1  IDiag  1:
 RMSU=  2.08D-06    CP:  9.80D-01  2.13D-01  3.38D-01  4.35D-01  5.98D-01
                    CP:  6.44D-01  1.66D+00  1.42D+00  1.16D+00  8.82D-01
                    CP:  7.16D-01  1.01D+00  9.69D-01
 E= -5368.78646085163     Delta-E=       -0.000003729165 Rises=F Damp=F
 DIIS: error= 2.38D-05 at cycle  14 NSaved=  14.
 NSaved=14 IEnMin=14 EnMin= -5368.78646085163     IErMin=14 ErrMin= 2.38D-05
 ErrMax= 2.38D-05  0.00D+00 EMaxC= 1.00D-01 BMatC= 2.77D-06 BMatP= 1.58D-05
 IDIUse=1 WtCom= 1.00D+00 WtEn= 0.00D+00
 Coeff-Com: -0.172D-03 0.145D-03 0.139D-04 0.151D-04-0.310D-03 0.149D-03
 Coeff-Com:  0.194D-02 0.141D-02-0.751D-02-0.156D-01-0.373D-01-0.786D-01
 Coeff-Com:  0.277D+00 0.859D+00
 Coeff:     -0.172D-03 0.145D-03 0.139D-04 0.151D-04-0.310D-03 0.149D-03
 Coeff:      0.194D-02 0.141D-02-0.751D-02-0.156D-01-0.373D-01-0.786D-01
 Coeff:      0.277D+00 0.859D+00
 Gap=     0.166 Goal=   None    Shift=    0.000
 Gap=     0.090 Goal=   None    Shift=    0.000
 RMSDP=2.47D-06 MaxDP=4.03D-04 DE=-3.73D-06 OVMax= 9.40D-04

 Cycle  15  Pass 1  IDiag  1:
 RMSU=  1.24D-06    CP:  9.80D-01  2.13D-01  3.38D-01  4.35D-01  5.98D-01
                    CP:  6.43D-01  1.66D+00  1.42D+00  1.16D+00  8.86D-01
                    CP:  7.35D-01  1.10D+00  1.32D+00  1.26D+00
 E= -5368.78646297857     Delta-E=       -0.000002126933 Rises=F Damp=F
 DIIS: error= 1.42D-05 at cycle  15 NSaved=  15.
 NSaved=15 IEnMin=15 EnMin= -5368.78646297857     IErMin=15 ErrMin= 1.42D-05
 ErrMax= 1.42D-05  0.00D+00 EMaxC= 1.00D-01 BMatC= 1.91D-06 BMatP= 2.77D-06
 IDIUse=1 WtCom= 1.00D+00 WtEn= 0.00D+00
 Coeff-Com: -0.122D-04-0.345D-04 0.355D-04 0.196D-04 0.143D-04-0.104D-03
 Coeff-Com: -0.155D-02-0.166D-03-0.210D-02-0.913D-02-0.358D-01-0.133D+00
 Coeff-Com: -0.505D-01 0.376D+00 0.856D+00
 Coeff:     -0.122D-04-0.345D-04 0.355D-04 0.196D-04 0.143D-04-0.104D-03
 Coeff:     -0.155D-02-0.166D-03-0.210D-02-0.913D-02-0.358D-01-0.133D+00
 Coeff:     -0.505D-01 0.376D+00 0.856D+00
 Gap=     0.166 Goal=   None    Shift=    0.000
 Gap=     0.089 Goal=   None    Shift=    0.000
 RMSDP=1.80D-06 MaxDP=2.96D-04 DE=-2.13D-06 OVMax= 6.94D-04

 Cycle  16  Pass 1  IDiag  1:
 RMSU=  6.26D-07    CP:  9.80D-01  2.13D-01  3.38D-01  4.35D-01  5.98D-01
                    CP:  6.43D-01  1.66D+00  1.42D+00  1.16D+00  8.89D-01
                    CP:  7.43D-01  1.17D+00  1.56D+00  1.66D+00  1.16D+00
 E= -5368.78646386215     Delta-E=       -0.000000883583 Rises=F Damp=F
 DIIS: error= 7.00D-06 at cycle  16 NSaved=  16.
 NSaved=16 IEnMin=16 EnMin= -5368.78646386215     IErMin=16 ErrMin= 7.00D-06
 ErrMax= 7.00D-06  0.00D+00 EMaxC= 1.00D-01 BMatC= 2.37D-07 BMatP= 1.91D-06
 IDIUse=1 WtCom= 1.00D+00 WtEn= 0.00D+00
 Coeff-Com:  0.415D-04-0.568D-04 0.147D-04 0.473D-06 0.835D-04-0.766D-04
 Coeff-Com: -0.125D-02-0.373D-03 0.111D-02 0.110D-02-0.206D-02-0.306D-01
 Coeff-Com: -0.115D+00-0.128D+00 0.382D+00 0.893D+00
 Coeff:      0.415D-04-0.568D-04 0.147D-04 0.473D-06 0.835D-04-0.766D-04
 Coeff:     -0.125D-02-0.373D-03 0.111D-02 0.110D-02-0.206D-02-0.306D-01
 Coeff:     -0.115D+00-0.128D+00 0.382D+00 0.893D+00
 Gap=     0.166 Goal=   None    Shift=    0.000
 Gap=     0.089 Goal=   None    Shift=    0.000
 RMSDP=1.08D-06 MaxDP=2.32D-04 DE=-8.84D-07 OVMax= 5.34D-04

 Cycle  17  Pass 1  IDiag  1:
 RMSU=  4.07D-07    CP:  9.80D-01  2.13D-01  3.38D-01  4.35D-01  5.98D-01
                    CP:  6.43D-01  1.66D+00  1.42D+00  1.16D+00  8.90D-01
                    CP:  7.48D-01  1.21D+00  1.70D+00  1.88D+00  1.52D+00
                    CP:  1.16D+00
 E= -5368.78646409894     Delta-E=       -0.000000236789 Rises=F Damp=F
 DIIS: error= 3.46D-06 at cycle  17 NSaved=  17.
 NSaved=17 IEnMin=17 EnMin= -5368.78646409894     IErMin=17 ErrMin= 3.46D-06
 ErrMax= 3.46D-06  0.00D+00 EMaxC= 1.00D-01 BMatC= 1.56D-07 BMatP= 2.37D-07
 IDIUse=1 WtCom= 1.00D+00 WtEn= 0.00D+00
 Coeff-Com:  0.104D-04-0.472D-05-0.757D-06-0.568D-05 0.191D-04-0.399D-04
 Coeff-Com: -0.281D-03 0.266D-04 0.979D-03 0.224D-02 0.587D-02 0.809D-02
 Coeff-Com: -0.544D-01-0.158D+00 0.165D-01 0.509D+00 0.669D+00
 Coeff:      0.104D-04-0.472D-05-0.757D-06-0.568D-05 0.191D-04-0.399D-04
 Coeff:     -0.281D-03 0.266D-04 0.979D-03 0.224D-02 0.587D-02 0.809D-02
 Coeff:     -0.544D-01-0.158D+00 0.165D-01 0.509D+00 0.669D+00
 Gap=     0.166 Goal=   None    Shift=    0.000
 Gap=     0.089 Goal=   None    Shift=    0.000
 RMSDP=4.62D-07 MaxDP=8.16D-05 DE=-2.37D-07 OVMax= 1.69D-04

 Cycle  18  Pass 1  IDiag  1:
 RMSU=  1.55D-07    CP:  9.80D-01  2.13D-01  3.38D-01  4.35D-01  5.98D-01
                    CP:  6.43D-01  1.66D+00  1.42D+00  1.16D+00  8.90D-01
                    CP:  7.51D-01  1.22D+00  1.74D+00  1.97D+00  1.68D+00
                    CP:  1.43D+00  9.48D-01
 E= -5368.78646414877     Delta-E=       -0.000000049833 Rises=F Damp=F
 DIIS: error= 8.41D-07 at cycle  18 NSaved=  18.
 NSaved=18 IEnMin=18 EnMin= -5368.78646414877     IErMin=18 ErrMin= 8.41D-07
 ErrMax= 8.41D-07  0.00D+00 EMaxC= 1.00D-01 BMatC= 1.20D-08 BMatP= 1.56D-07
 IDIUse=1 WtCom= 1.00D+00 WtEn= 0.00D+00
 Coeff-Com: -0.300D-05 0.872D-05-0.297D-05-0.177D-05-0.109D-04-0.899D-05
 Coeff-Com:  0.866D-04 0.116D-03 0.238D-03 0.753D-03 0.280D-02 0.756D-02
 Coeff-Com: -0.284D-02-0.454D-01-0.562D-01 0.528D-01 0.276D+00 0.764D+00
 Coeff:     -0.300D-05 0.872D-05-0.297D-05-0.177D-05-0.109D-04-0.899D-05
 Coeff:      0.866D-04 0.116D-03 0.238D-03 0.753D-03 0.280D-02 0.756D-02
 Coeff:     -0.284D-02-0.454D-01-0.562D-01 0.528D-01 0.276D+00 0.764D+00
 Gap=     0.166 Goal=   None    Shift=    0.000
 Gap=     0.089 Goal=   None    Shift=    0.000
 RMSDP=1.67D-07 MaxDP=2.15D-05 DE=-4.98D-08 OVMax= 5.70D-05

 Cycle  19  Pass 1  IDiag  1:
 RMSU=  8.48D-08    CP:  9.80D-01  2.13D-01  3.38D-01  4.35D-01  5.98D-01
                    CP:  6.43D-01  1.66D+00  1.42D+00  1.16D+00  8.90D-01
                    CP:  7.51D-01  1.22D+00  1.76D+00  2.00D+00  1.73D+00
                    CP:  1.54D+00  1.07D+00  1.03D+00
 E= -5368.78646415468     Delta-E=       -0.000000005914 Rises=F Damp=F
 DIIS: error= 7.14D-07 at cycle  19 NSaved=  19.
 NSaved=19 IEnMin=19 EnMin= -5368.78646415468     IErMin=19 ErrMin= 7.14D-07
 ErrMax= 7.14D-07  0.00D+00 EMaxC= 1.00D-01 BMatC= 4.97D-09 BMatP= 1.20D-08
 IDIUse=1 WtCom= 1.00D+00 WtEn= 0.00D+00
 Coeff-Com: -0.411D-05 0.596D-05-0.950D-06 0.936D-07-0.321D-05 0.133D-04
 Coeff-Com:  0.821D-04 0.199D-04-0.119D-03-0.998D-04 0.153D-03 0.191D-02
 Coeff-Com:  0.118D-01 0.148D-01-0.247D-01-0.878D-01-0.217D-01 0.362D+00
 Coeff-Com:  0.743D+00
 Coeff:     -0.411D-05 0.596D-05-0.950D-06 0.936D-07-0.321D-05 0.133D-04
 Coeff:      0.821D-04 0.199D-04-0.119D-03-0.998D-04 0.153D-03 0.191D-02
 Coeff:      0.118D-01 0.148D-01-0.247D-01-0.878D-01-0.217D-01 0.362D+00
 Coeff:      0.743D+00
 Gap=     0.166 Goal=   None    Shift=    0.000
 Gap=     0.089 Goal=   None    Shift=    0.000
 RMSDP=6.86D-08 MaxDP=1.41D-05 DE=-5.91D-09 OVMax= 2.78D-05

 Cycle  20  Pass 1  IDiag  1:
 RMSU=  4.47D-08    CP:  9.80D-01  2.13D-01  3.38D-01  4.35D-01  5.98D-01
                    CP:  6.43D-01  1.66D+00  1.42D+00  1.16D+00  8.90D-01
                    CP:  7.51D-01  1.22D+00  1.76D+00  2.00D+00  1.74D+00
                    CP:  1.57D+00  1.15D+00  1.23D+00  1.06D+00
 E= -5368.78646415622     Delta-E=       -0.000000001539 Rises=F Damp=F
 DIIS: error= 4.95D-07 at cycle  20 NSaved=  20.
 NSaved=20 IEnMin=20 EnMin= -5368.78646415622     IErMin=20 ErrMin= 4.95D-07
 ErrMax= 4.95D-07  0.00D+00 EMaxC= 1.00D-01 BMatC= 2.15D-09 BMatP= 4.97D-09
 IDIUse=1 WtCom= 1.00D+00 WtEn= 0.00D+00
 Coeff-Com: -0.158D-05 0.145D-05 0.343D-07 0.302D-06 0.564D-05 0.119D-04
 Coeff-Com:  0.607D-05-0.350D-04-0.102D-03-0.180D-03-0.463D-03-0.384D-03
 Coeff-Com:  0.670D-02 0.163D-01-0.124D-02-0.602D-01-0.803D-01 0.927D-02
 Coeff-Com:  0.408D+00 0.703D+00
 Coeff:     -0.158D-05 0.145D-05 0.343D-07 0.302D-06 0.564D-05 0.119D-04
 Coeff:      0.607D-05-0.350D-04-0.102D-03-0.180D-03-0.463D-03-0.384D-03
 Coeff:      0.670D-02 0.163D-01-0.124D-02-0.602D-01-0.803D-01 0.927D-02
 Coeff:      0.408D+00 0.703D+00
 Gap=     0.166 Goal=   None    Shift=    0.000
 Gap=     0.089 Goal=   None    Shift=    0.000
 RMSDP=4.37D-08 MaxDP=6.81D-06 DE=-1.54D-09 OVMax= 1.67D-05

 Cycle  21  Pass 1  IDiag  1:
 Restarting incremental Fock formation.
 E= -5368.78646415695     Delta-E=       -0.000000000724 Rises=F Damp=F
 DIIS: error= 1.81D-07 at cycle  21 NSaved=  20.
 NSaved=20 IEnMin=20 EnMin= -5368.78646415695     IErMin=20 ErrMin= 1.81D-07
 ErrMax= 1.81D-07  0.00D+00 EMaxC= 1.00D-01 BMatC= 2.31D-10 BMatP= 2.15D-09
 IDIUse=1 WtCom= 1.00D+00 WtEn= 0.00D+00
 Coeff-Com:  0.748D-06-0.159D-05 0.161D-06 0.245D-05 0.109D-05-0.104D-04
 Coeff-Com: -0.164D-04-0.995D-05-0.169D-04-0.992D-04-0.983D-04-0.129D-03
 Coeff-Com:  0.117D-02 0.308D-02 0.127D-02-0.193D-01-0.652D-01-0.430D-01
 Coeff-Com:  0.174D+00 0.948D+00
 Coeff:      0.748D-06-0.159D-05 0.161D-06 0.245D-05 0.109D-05-0.104D-04
 Coeff:     -0.164D-04-0.995D-05-0.169D-04-0.992D-04-0.983D-04-0.129D-03
 Coeff:      0.117D-02 0.308D-02 0.127D-02-0.193D-01-0.652D-01-0.430D-01
 Coeff:      0.174D+00 0.948D+00
 Gap=     0.166 Goal=   None    Shift=    0.000
 Gap=     0.089 Goal=   None    Shift=    0.000
 RMSDP=2.68D-08 MaxDP=5.59D-06 DE=-7.24D-10 OVMax= 1.31D-05

 Cycle  22  Pass 1  IDiag  1:
 RMSU=  2.68D-08    CP:  1.00D+00
 E= -5368.78646415710     Delta-E=       -0.000000000155 Rises=F Damp=F
 DIIS: error= 1.33D-07 at cycle  22 NSaved=  20.
 NSaved=20 IEnMin=20 EnMin= -5368.78646415710     IErMin=20 ErrMin= 1.33D-07
 ErrMax= 1.33D-07  0.00D+00 EMaxC= 1.00D-01 BMatC= 1.66D-10 BMatP= 2.31D-10
 IDIUse=1 WtCom= 1.00D+00 WtEn= 0.00D+00
 Coeff-Com:  0.549D-06-0.778D-06-0.128D-05-0.432D-05-0.310D-05 0.737D-05
 Coeff-Com:  0.218D-04 0.287D-04 0.379D-04-0.102D-03-0.229D-02-0.424D-02
 Coeff-Com:  0.287D-02 0.217D-01 0.143D-01-0.389D-01-0.167D+00-0.160D+00
 Coeff-Com:  0.548D+00 0.786D+00
 Coeff:      0.549D-06-0.778D-06-0.128D-05-0.432D-05-0.310D-05 0.737D-05
 Coeff:      0.218D-04 0.287D-04 0.379D-04-0.102D-03-0.229D-02-0.424D-02
 Coeff:      0.287D-02 0.217D-01 0.143D-01-0.389D-01-0.167D+00-0.160D+00
 Coeff:      0.548D+00 0.786D+00
 Gap=     0.166 Goal=   None    Shift=    0.000
 Gap=     0.089 Goal=   None    Shift=    0.000
 RMSDP=1.82D-08 MaxDP=4.13D-06 DE=-1.55D-10 OVMax= 8.34D-06

 Cycle  23  Pass 1  IDiag  1:
 RMSU=  9.93D-09    CP:  1.00D+00  1.57D+00
 E= -5368.78646415727     Delta-E=       -0.000000000167 Rises=F Damp=F
 DIIS: error= 7.02D-08 at cycle  23 NSaved=  20.
 NSaved=20 IEnMin=20 EnMin= -5368.78646415727     IErMin=20 ErrMin= 7.02D-08
 ErrMax= 7.02D-08  0.00D+00 EMaxC= 1.00D-01 BMatC= 4.43D-11 BMatP= 1.66D-10
 IDIUse=1 WtCom= 1.00D+00 WtEn= 0.00D+00
 Coeff-Com:  0.213D-06-0.180D-05-0.356D-05 0.330D-05 0.110D-04 0.140D-04
 Coeff-Com:  0.126D-04 0.221D-04-0.103D-03-0.126D-02-0.269D-02 0.684D-03
 Coeff-Com:  0.114D-01 0.120D-01-0.607D-03-0.773D-01-0.145D+00 0.297D-01
 Coeff-Com:  0.399D+00 0.774D+00
 Coeff:      0.213D-06-0.180D-05-0.356D-05 0.330D-05 0.110D-04 0.140D-04
 Coeff:      0.126D-04 0.221D-04-0.103D-03-0.126D-02-0.269D-02 0.684D-03
 Coeff:      0.114D-01 0.120D-01-0.607D-03-0.773D-01-0.145D+00 0.297D-01
 Coeff:      0.399D+00 0.774D+00
 Gap=     0.166 Goal=   None    Shift=    0.000
 Gap=     0.089 Goal=   None    Shift=    0.000
 RMSDP=1.01D-08 MaxDP=2.09D-06 DE=-1.67D-10 OVMax= 5.04D-06

 Cycle  24  Pass 1  IDiag  1:
 RMSU=  4.59D-09    CP:  1.00D+00  1.89D+00  1.26D+00
 E= -5368.78646415731     Delta-E=       -0.000000000042 Rises=F Damp=F
 DIIS: error= 3.11D-08 at cycle  24 NSaved=  20.
 NSaved=20 IEnMin=20 EnMin= -5368.78646415731     IErMin=20 ErrMin= 3.11D-08
 ErrMax= 3.11D-08  0.00D+00 EMaxC= 1.00D-01 BMatC= 6.41D-12 BMatP= 4.43D-11
 IDIUse=1 WtCom= 1.00D+00 WtEn= 0.00D+00
 Coeff-Com: -0.555D-06-0.686D-06 0.285D-05 0.255D-05-0.155D-05-0.395D-05
 Coeff-Com: -0.569D-05-0.182D-04 0.591D-04-0.169D-03-0.274D-03 0.113D-04
 Coeff-Com:  0.114D-02 0.924D-02 0.537D-02-0.331D-01-0.104D+00-0.212D-01
 Coeff-Com:  0.371D+00 0.772D+00
 Coeff:     -0.555D-06-0.686D-06 0.285D-05 0.255D-05-0.155D-05-0.395D-05
 Coeff:     -0.569D-05-0.182D-04 0.591D-04-0.169D-03-0.274D-03 0.113D-04
 Coeff:      0.114D-02 0.924D-02 0.537D-02-0.331D-01-0.104D+00-0.212D-01
 Coeff:      0.371D+00 0.772D+00
 Gap=     0.166 Goal=   None    Shift=    0.000
 Gap=     0.089 Goal=   None    Shift=    0.000
 RMSDP=4.34D-09 MaxDP=7.80D-07 DE=-4.18D-11 OVMax= 2.31D-06

 Error on total polarization charges =  0.02731
 SCF Done:  E(UMN15) =  -5368.78646416     A.U. after   24 cycles
            NFock= 24  Conv=0.43D-08     -V/T= 2.0908
 <Sx>= 0.0000 <Sy>= 0.0000 <Sz>= 0.5000 <S**2>= 0.7642 S= 0.5071
 <L.S>=  0.00000000000    
 KE= 4.921880147752D+03 PE=-3.628523482794D+04 EE= 1.424016523741D+04
 SMD-CDS (non-electrostatic) energy       (kcal/mol) =       4.53
 (included in total energy above)
 Annihilation of the first spin contaminant:
 S**2 before annihilation     0.7642,   after     0.7501
 Leave Link  502 at Wed Feb 12 14:06:43 2025, MaxMem= 82678120448 cpu:           29187.7 elap:            1222.6
 (Enter /sysapps/ubuntu-applications/gaussian-new/avx/g16/l801.exe)
 DoSCS=F DFT=T ScalE2(SS,OS)=  1.000000  1.000000
 Range of M.O.s used for correlation:     1   916
 NBasis=   916 NAE=   230 NBE=   229 NFC=     0 NFV=     0
 NROrb=    916 NOA=   230 NOB=   229 NVA=   686 NVB=   687

 **** Warning!!: The largest alpha MO coefficient is  0.12748455D+02


 **** Warning!!: The largest beta MO coefficient is  0.12748455D+02


 **** Warning!!: The smallest beta delta epsilon is  0.89391775D-01

 Leave Link  801 at Wed Feb 12 14:06:43 2025, MaxMem= 82678120448 cpu:               2.1 elap:               0.1
 (Enter /sysapps/ubuntu-applications/gaussian-new/avx/g16/l1101.exe)
 Using compressed storage, NAtomX=    69.
 Will process     70 centers per pass.
   1 Symmetry operations used in ECPInt.
 ECPInt:  NShTT=   77815 NPrTT=  297642 LenC2=   61379 LenP2D=  143472.
 LDataN:  DoStor=T MaxTD1=10 Len=  848
 Leave Link 1101 at Wed Feb 12 14:06:55 2025, MaxMem= 82678120448 cpu:             279.5 elap:              11.7
 (Enter /sysapps/ubuntu-applications/gaussian-new/avx/g16/l1102.exe)
 Symmetrizing basis deriv contribution to polar:
 IMax=3 JMax=2 DiffMx= 0.00D+00
 Leave Link 1102 at Wed Feb 12 14:06:56 2025, MaxMem= 82678120448 cpu:               4.5 elap:               0.2
 (Enter /sysapps/ubuntu-applications/gaussian-new/avx/g16/l1110.exe)
 Forming Gx(P) for the SCF density, NAtomX=    69.
 Integral derivatives from FoFJK, PRISM(SPDF).
 Do as many integral derivatives as possible in FoFJK.
 G2DrvN: MDV=   82678114792.
 G2DrvN: will do    70 centers at a time, making    1 passes.
 Calling FoFCou, ICntrl=  3107 FMM=T I1Cent=   0 AccDes= 0.00D+00.
 FoFJK:  IHMeth= 1 ICntrl=    3107 DoSepK=F KAlg= 0 I1Cent=           0 FoldK=F
 IRaf=         0 NMat=       1 IRICut=       1 DoRegI=T DoRafI=F ISym2E= 0 IDoP0=0 IntGTp=1.
 FoFCou: FMM=T IPFlag=           0 FMFlag=      100000 FMFlg1=        2001
         NFxFlg=           0 DoJE=F BraDBF=F KetDBF=F FulRan=T
         wScrn=  0.000000 ICntrl=      3107 IOpCl=  1 I1Cent=           0 NGrid=           0
         NMat0=    1 NMatS0=      1 NMatT0=    0 NMatD0=    1 NMtDS0=    0 NMtDT0=    0
 Symmetry not used in FoFCou.
 FMM levels:  10  Number of levels for PrismC:   9
 Defaulting to unpruned grid for atomic number  70.
 Defaulting to unpruned grid for atomic number  70.
 Defaulting to unpruned grid for atomic number  70.
 Defaulting to unpruned grid for atomic number  70.
 Defaulting to unpruned grid for atomic number  70.
 Defaulting to unpruned grid for atomic number  70.
 Defaulting to unpruned grid for atomic number  70.
 Defaulting to unpruned grid for atomic number  70.
 Defaulting to unpruned grid for atomic number  70.
 Defaulting to unpruned grid for atomic number  70.
 Defaulting to unpruned grid for atomic number  70.
 Defaulting to unpruned grid for atomic number  70.
 Defaulting to unpruned grid for atomic number  70.
 Defaulting to unpruned grid for atomic number  70.
 Defaulting to unpruned grid for atomic number  70.
 Defaulting to unpruned grid for atomic number  70.
 Defaulting to unpruned grid for atomic number  70.
 Defaulting to unpruned grid for atomic number  70.
 Defaulting to unpruned grid for atomic number  70.
 Defaulting to unpruned grid for atomic number  70.
 Defaulting to unpruned grid for atomic number  70.
 Defaulting to unpruned grid for atomic number  70.
 Defaulting to unpruned grid for atomic number  70.
 Defaulting to unpruned grid for atomic number  70.
 NEqPCM:  Using equilibrium solvation (IEInf=0, Eps=  10.1250, EpsInf=   2.0874)
 G2PCM: DoFxE=T DoFxN=T DoGrad=T DoDP/DQ/DG/TGxP=FFFF NFrqRd=   0 IEInf=0 SqF1=F DoCFld=F IF1Alg=4.
 GePol: Maximum number of non-zero 1st derivatives   =     259
 End of G2Drv F.D. properties file   721 does not exist.
 End of G2Drv F.D. properties file   722 does not exist.
 End of G2Drv F.D. properties file   788 does not exist.
 Leave Link 1110 at Wed Feb 12 14:55:21 2025, MaxMem= 82678120448 cpu:           69684.4 elap:            2905.2
 (Enter /sysapps/ubuntu-applications/gaussian-new/avx/g16/l1002.exe)
 Minotr:  UHF open shell wavefunction.
          IDoAtm=11111111111111111111111111111111111111111111111111
          IDoAtm=1111111111111111111
 NEqPCM:  Using equilibrium solvation (IEInf=0, Eps=  10.1250, EpsInf=   2.0874)
          Direct CPHF calculation.
          Differentiating once with respect to electric field.
                with respect to dipole field.
          Differentiating once with respect to nuclear coordinates.
          Requested convergence is 1.0D-08 RMS, and 1.0D-07 maximum.
          Secondary convergence is 1.0D-12 RMS, and 1.0D-12 maximum.
          NewPWx=T KeepS1=F KeepF1=F KeepIn=T MapXYZ=F SortEE=F KeepMc=T.
 Defaulting to unpruned grid for atomic number  70.
        21410 words used for storage of precomputed grid.
 Two-electron integrals replicated using symmetry.
          MDV=   82678120448 using IRadAn=       1.
          Solving linear equations simultaneously, MaxMat=      72.
 FoF2E skips out because all densities are zero.
 CalDSu exits because no D1Ps are significant.
 FoFJK:  IHMeth= 1 ICntrl=       0 DoSepK=F KAlg= 0 I1Cent=           0 FoldK=F
 IRaf= 830000000 NMat=      72 IRICut=       1 DoRegI=T DoRafI=F ISym2E= 2 IDoP0=3 IntGTp=3.
 Defaulting to unpruned grid for atomic number  70.
 Defaulting to unpruned grid for atomic number  70.
 Defaulting to unpruned grid for atomic number  70.
 Defaulting to unpruned grid for atomic number  70.
 Defaulting to unpruned grid for atomic number  70.
 Defaulting to unpruned grid for atomic number  70.
 Defaulting to unpruned grid for atomic number  70.
 Defaulting to unpruned grid for atomic number  70.
 Defaulting to unpruned grid for atomic number  70.
 Defaulting to unpruned grid for atomic number  70.
 Defaulting to unpruned grid for atomic number  70.
 Defaulting to unpruned grid for atomic number  70.
 Defaulting to unpruned grid for atomic number  70.
 Defaulting to unpruned grid for atomic number  70.
 Defaulting to unpruned grid for atomic number  70.
 Defaulting to unpruned grid for atomic number  70.
 Defaulting to unpruned grid for atomic number  70.
 Defaulting to unpruned grid for atomic number  70.
 Defaulting to unpruned grid for atomic number  70.
 Defaulting to unpruned grid for atomic number  70.
 Defaulting to unpruned grid for atomic number  70.
 Defaulting to unpruned grid for atomic number  70.
 Defaulting to unpruned grid for atomic number  70.
 Defaulting to unpruned grid for atomic number  70.
          There are   210 degrees of freedom in the 1st order CPHF.  IDoFFX=6 NUNeed=     3.
    210 vectors produced by pass  0 Test12= 3.15D-13 1.00D-09 XBig12= 4.67D+02 3.84D+00.
 AX will form    72 AO Fock derivatives at one time.
    207 vectors produced by pass  1 Test12= 3.15D-13 1.00D-09 XBig12= 9.55D+01 7.77D-01.
    207 vectors produced by pass  2 Test12= 3.15D-13 1.00D-09 XBig12= 3.86D+00 2.39D-01.
    207 vectors produced by pass  3 Test12= 3.15D-13 1.00D-09 XBig12= 8.22D-02 4.92D-02.
    207 vectors produced by pass  4 Test12= 3.15D-13 1.00D-09 XBig12= 1.17D-03 3.52D-03.
    207 vectors produced by pass  5 Test12= 3.15D-13 1.00D-09 XBig12= 1.03D-05 1.81D-04.
    202 vectors produced by pass  6 Test12= 3.15D-13 1.00D-09 XBig12= 1.12D-07 1.95D-05.
    113 vectors produced by pass  7 Test12= 3.15D-13 1.00D-09 XBig12= 9.32D-10 1.83D-06.
     20 vectors produced by pass  8 Test12= 3.15D-13 1.00D-09 XBig12= 6.67D-12 1.53D-07.
      3 vectors produced by pass  9 Test12= 3.15D-13 1.00D-09 XBig12= 9.66D-14 1.96D-08.
      3 vectors produced by pass 10 Test12= 3.15D-13 1.00D-09 XBig12= 4.94D-15 4.66D-09.
      1 vectors produced by pass 11 Test12= 3.15D-13 1.00D-09 XBig12= 2.35D-15 1.43D-09.
 InvSVY:  IOpt=1 It=  1 EMax= 2.49D-14
 Solved reduced A of dimension  1587 with   210 vectors.
 FullF1:  Do perturbations      1 to       3.
[...]
 .01258016,-0.00020677,-0.00068753,-0.00049897,-0.00735936,-0.27098372,
 -0.13679825,-0.00117925,-0.00026258,0.00118924,-0.00152823,0.00038265,
 0.00127549,0.00508543,0.27953159,-0.00001196,0.00003709,-0.00002222,0.
 00000285,0.00006584,-0.00001034,0.00002815,0.00003710,0.00001945,-0.00
 001495,-0.00001465,-0.00000832,-0.00004258,-0.00004186,0.00002472,-0.0
 0000002,-0.00003253,-0.00002247,-0.00001581,-0.00003084,-0.00001114,-0
 .00001969,0.00003772,-0.00000961,0.00001035,0.00000737,0.00000514,0.00
 000406,0.00000551,-0.00000201,0.00000107,-0.00001079,0.00000398,0.0000
 0360,-0.00006894,0.00002724,-0.00000067,-0.00000136,-0.00000042,-0.000
 00162,-0.00000056,-0.00000026,-0.00000088,-0.00000028,-0.00000104,-0.0
 0000932,-0.00000181,-0.00000578,-0.00001250,-0.00000732,0.00000458,-0.
 00002101,0.00002256,0.00000644,0.00002201,-0.00004195,-0.00001404,0.00
 001319,0.00000432,0.00000980,0.00002494,0.00001589,-0.00001455,-0.0000
 0515,0.00001396,0.00000100,-0.00000783,0.00001689,-0.00000168,-0.00000
 900,-0.00000257,-0.00000423,-0.00000340,-0.00000176,-0.00000325,-0.000
 01464,-0.00001124,0.00001010,-0.00001363,-0.00000861,0.00000340,0.0000
 1378,0.00001291,-0.00000413,0.00000730,-0.00000152,0.00000070,-0.00001
 504,-0.00009304,0.00004722,-0.00000213,-0.00000737,0.00000052,-0.00000
 822,-0.00000266,-0.00000041,-0.00000422,-0.00000305,0.00000475,-0.0000
 0190,0.00000081,0.00000046,-0.00000264,-0.00000103,0.00000029,-0.00000
 346,0.00000146,-0.00000203,-0.00003274,0.00002221,-0.00001700,0.000001
 98,0.00001551,-0.00000377,0.00002994,0.00003986,-0.00003223,0.00042625
 ,0.00038086,-0.00046634,-0.00005188,-0.00001801,-0.00000705,-0.0000017
 0,-0.00002050,-0.00002236,0.00001316,-0.00000404,0.00000863,0.00001428
 ,0.00000272,0.00001044,0.00000641,0.00000587,-0.00001376,-0.00001429,-
 0.00000197,-0.00000631,0.00000113,0.00000208,-0.00000107,-0.00000086,0
 .00000121,-0.00000046,0.00000027,0.00000245,0.00000033,-0.00002856,0.0
 0002347,0.00001936,-0.00000033,-0.00000619,-0.00000959,0.00000299,-0.0
 0003571,-0.00000946,-0.00000170,0.00000025,0.00001998,0.00000529,-0.00
 001320,0.00000806,0.00000030,0.00000577,0.00000122,-0.00006320,-0.0000
 3078,-0.00006986,0.00002264,0.00062479,-0.00047021,-0.00571133,-0.0017
 3680,0.00111690,-0.00370253,-0.00048443,0.00371490,0.00023703,-0.01819
 533,-0.00483682,0.00016862,-0.00069944,-0.00045492,-0.00181784,0.00643
 665,0.00739878,0.00002062,0.00035088,0.00008093,-0.01302711,-0.1368616
 3,-0.13129439,0.00244577,0.00152851,-0.00118413,0.00231032,0.00096597,
 -0.00172384,0.01873508,0.14786520,0.12809790,-0.00220737,0.00007205,0.
 00146080,-0.02384128,0.01153059,-0.00582184,-0.00891166,0.01439538,0.0
 0073678,-0.00224088,-0.00110312,0.00549239,-0.00877446,-0.00896630,-0.
 00143311,0.00920606,-0.00129252,0.00841187,-0.00054606,-0.00836791,-0.
 00077266,-0.00048922,-0.00236775,-0.00287827,0.00230687,0.00189542,0.0
 0107916,0.00026260,0.00006019,0.00019466,-0.00013625,0.00030526,-0.000
 25396,-0.00017350,0.00007903,0.00025341,-0.00022433,-0.00019513,-0.000
 03313,-0.00013477,-0.00014089,-0.00015686,0.00041025,-0.00060772,-0.00
 005250,-0.01032389,-0.00627845,0.00135363,-0.00840351,0.00053741,-0.00
 359963,-0.00865467,-0.00110773,0.00378742,0.01206885,0.00629216,-0.009
 91588,-0.01622216,-0.01837567,-0.01985010,0.00048387,0.00619930,-0.015
 29875,-0.01337851,0.00562612,0.00749239,-0.00170362,-0.00048086,0.0016
 9999,-0.00619332,0.00490542,-0.00341116,0.00124815,0.00476550,0.005222
 92,-0.00517073,-0.00143717,0.00489493,0.00074960,-0.00078937,0.0026614
 8,0.00524425,0.00173981,0.00036049,-0.00640352,-0.00077360,-0.00107330
 ,0.00224605,-0.00227065,0.00224501,-0.00087467,-0.00115736,0.00017983,
 -0.00280456,0.00005362,-0.00102375,-0.00129805,-0.00066071,0.00122298,
 0.00167116,0.00059733,0.00061913,0.00256254,0.00156350,-0.00037070,0.0
 0247114,-0.00058957,0.00126921,-0.00150535,0.00166846,-0.00084642,-0.0
 0046620,0.00046104,0.00008871,-0.00108101,-0.00052178,-0.00025767,-0.0
 0233160,-0.00043398,0.00005095,-0.00020500,-0.00009774,0.00072061,-0.0
 0004606,-0.00014677,0.00002517,-0.00012614,0.00016268,0.00009978,-0.00
 001509,0.00038900,-0.00053186,-0.00016895,0.00031407,-0.00060738,0.000
 19903,0.00008282,0.00012677,-0.00022131,0.00046154,-0.00011084,0.00000
 018,-0.00002948,-0.00005732,-0.00000660,0.00007753,-0.00003318,0.00013
 620,0.00006099,-0.00003431,0.00005098,-0.00009128,-0.00009773,-0.00033
 332,-0.00057047,-0.00032715,0.00043483,0.00004753,0.00084275,0.0004844
 9,-0.00032252,-0.00018431,-0.00001766,0.00003075,0.00004614,0.00021869
 ,0.00007563,0.00003948,0.00042362,0.00035607,0.00002713,0.00022910,0.0
 0014376,-0.00012153,-0.00023257,0.00008298,-0.00020611,0.00027824,-0.0
 0012026,-0.00020711,0.00005783,-0.00024690,0.00034753,-0.00005878,0.00
 011090,0.00003326,-0.00009359,-0.00007481,0.00000158,0.00003154,-0.000
 02606,0.00002781,-0.00001766,0.00000942,0.00002154,0.00002039,0.000022
 26,0.00004096,0.00000402,0.00003158,0.00004472,0.08951160,0.00125975,0
 .00050948,-0.00067875,-0.00172915,0.00430150,0.00019784,0.01140938,-0.
 00901191,-0.00073315,-0.00250465,-0.00167434,-0.00389407,-0.00158345,-
 0.00521830,-0.00037049,0.00207798,-0.00125420,0.00080583,-0.00109836,0
 .00486086,0.00074420,0.00012947,0.00013014,-0.00023292,-0.00035091,-0.
 00075078,-0.00123905,0.00001301,-0.00005011,-0.00000302,0.00004704,0.0
 0041803,-0.00008715,-0.00023255,-0.00004955,0.00007740,-0.00031101,0.0
 0020893,0.00025434,0.00022351,0.00001305,-0.00009661,0.00009652,-0.001
 31516,0.00014160,-0.00262996,-0.01918763,-0.00003747,0.00487537,-0.005
 29521,-0.00277559,-0.00241283,-0.00266150,0.00421611,0.00877945,-0.047
 51669,0.00294698,-0.01502015,0.00526246,-0.02436693,0.00568846,0.00130
 575,0.02597220,0.00490265,-0.01768339,-0.00593797,-0.00425185,0.009228
 43,-0.00223948,0.00122629,-0.01049133,0.00283919,0.00162047,-0.0001414
 2,0.00489680,-0.00171478,-0.00375438,-0.00829771,-0.00296613,-0.000268
 19,-0.00509326,-0.00077155,-0.00408357,0.00316951,-0.00473038,0.000142
 94,0.00223710,-0.00649953,-0.00714504,-0.00478811,0.00006573,0.0011825
 2,-0.00042679,-0.00005296,0.00104933,-0.00146582,0.00095357,0.00087689
 ,-0.00259141,0.00120036,-0.00087702,-0.00090694,0.00110874,0.00029290,
 -0.00028539,0.00290735,-0.00097974,0.00104066,0.00198519,0.00181501,0.
 00148614,0.00080400,0.00336856,0.00348457,0.00346756,0.00355287,-0.000
 27468,0.00052700,0.00047518,0.00018397,0.00011837,0.00002527,-0.000293
 79,-0.00001562,0.00008009,0.00001333,0.00004934,-0.00005013,0.00000528
 ,0.00053484,0.00023219,0.00030294,0.00023751,0.00005720,0.00011578,-0.
 00049679,-0.00019147,-0.00025016,0.00045770,-0.00053571,0.00010383,-0.
 00001621,0.00001896,0.00002621,0.00004574,-0.00003726,0.00004520,-0.00
 003911,-0.00004976,-0.00000120,-0.00004145,0.00000955,0.00002582,-0.00
 005203,0.00009576,0.00016385,-0.00038892,-0.00008810,-0.00035223,-0.00
 010459,-0.00044761,-0.00029655,0.00035664,-0.00015438,0.00001284,-0.00
 010135,-0.00006976,-0.00002641,-0.00015098,0.00007698,0.00007834,-0.00
 005577,-0.00002646,-0.00018128,0.00005685,-0.00007818,0.00005861,0.000
 10434,0.00014635,-0.00007110,-0.00007805,0.00007804,0.00022507,0.00003
 772,-0.00006870,-0.00000347,0.00003180,0.00001492,0.00001701,-0.000028
 60,-0.00007018,-0.00009386,-0.00011695,-0.00012033,0.00006940,0.000007
 19,-0.00001062,0.00000260,-0.00001525,-0.00000601,-0.00000018,-0.00572
 589,0.10231359,0.00000704,0.00038258,0.00012114,-0.00398341,0.00182066
 ,0.00211511,0.01214593,-0.01318264,0.00505427,-0.00146607,0.00012770,-
 0.01128206,0.00053009,-0.00081369,-0.00368986,0.00076598,-0.00032881,-
 0.00027002,-0.00173254,0.00802322,-0.00052293,-0.00042294,-0.00016066,
 0.00028261,-0.00117243,-0.00098530,-0.00060311,0.00016040,-0.00000833,
 -0.00009668,-0.00036497,-0.00027706,-0.00056589,0.00003706,-0.00003075
 ,-0.00002225,-0.00017185,0.00019264,0.00008156,0.00043096,-0.00007671,
 -0.00026911,0.00045603,-0.00058438,0.00061204,0.00335339,-0.00166562,-
 0.01684873,-0.00492590,-0.00878991,-0.00935441,0.00426866,0.00150858,-
 0.01302449,-0.01010471,0.00208759,0.01979948,-0.01726491,-0.02681217,-
 0.00317727,-0.01703921,0.02677322,-0.01026274,0.00692515,-0.00232910,-
 0.01399009,0.00158972,0.00011871,-0.00293027,-0.00140071,0.00632177,-0
 .01307898,0.00178703,0.00515814,0.00195624,0.00310751,-0.00490133,-0.0
 0664016,0.00531110,-0.00414035,0.00259019,0.00378653,0.00398094,-0.003
 75088,-0.00609289,0.00219255,0.00137785,0.00218292,-0.00160805,0.00022
 166,-0.00074785,-0.00373751,0.00047459,-0.00095443,-0.00130512,0.00086
 446,-0.00096210,-0.00074840,0.00185744,0.00150624,-0.00097679,-0.00145
 074,0.00318575,0.00151014,-0.00087951,0.00177323,-0.00055738,0.0003824
 7,-0.00077450,0.00130767,-0.00068670,-0.00039976,-0.00064399,-0.001060
 78,0.00041073,0.00077179,-0.00034999,0.00069030,0.00018518,0.00003018,
 -0.00010718,0.00003150,0.00007305,-0.00000070,0.00005509,-0.00000927,0
 .00008581,-0.00003150,-0.00004322,-0.00060344,-0.00012168,-0.00000756,
 -0.00034255,-0.00011106,0.00016945,0.00056670,0.00014784,0.00023980,-0
 .00036655,0.00038244,0.00028412,-0.00000382,0.00001048,0.00000370,-0.0
 0008191,0.00006201,-0.00005417,-0.00002095,-0.00001828,-0.00001256,-0.
 00005945,0.00000477,-0.00001073,-0.00029067,0.00037495,-0.00038687,-0.
 00002758,-0.00011211,-0.00000831,-0.00042574,-0.00030910,-0.00011359,0
 .00033046,-0.00019010,0.00010184,-0.00006983,-0.00002044,-0.00000755,-
 0.00004444,0.00003281,-0.00000779,0.00012221,0.00004576,0.00015743,-0.
 00002700,-0.00003625,-0.00006066,-0.00001714,-0.00002952,-0.00009616,0
 .00004362,0.00006979,-0.00011788,-0.00002701,0.00003182,-0.00004076,-0
 .00002083,-0.00000302,0.00001529,0.00003177,-0.00001891,-0.00002029,0.
 00000173,0.00000844,0.00003873,-0.00001586,-0.00000865,-0.00000035,-0.
 00001556,-0.00001607,0.00000413,0.01790158,0.01219915,0.07714895,-0.10
 085289,-0.03538244,0.05148446,-0.00241099,-0.01078871,0.00746797,-0.02
 006610,-0.01876992,0.03636057,-0.00022756,-0.00188955,-0.00266441,0.00
 056241,0.00336305,0.00035816,0.00225770,0.00337726,0.00629697,-0.00408
 039,-0.00575013,-0.00420476,0.00029573,-0.00105870,-0.00083423,0.00180
 440,0.00089639,-0.00133144,0.00002801,0.00026768,0.00031107,0.00004135
 ,0.00019217,0.00008303,-0.00011871,0.00007853,0.00034201,-0.00022004,-
 0.00026751,-0.00021503,-0.00053972,-0.00053418,-0.00003655,0.00011987,
 0.00007532,-0.00008635,-0.00081049,-0.00003436,-0.00025375,-0.00046523
 ,0.00008302,0.00087030,-0.00047010,0.00091997,0.00014251,0.00055258,-0
 .00118581,-0.00025015,0.00121340,0.00023240,0.00064457,0.00033811,-0.0
 0007067,-0.00365288,-0.00021655,0.00054011,0.00009596,-0.00022912,0.00
 039689,-0.00003951,-0.00071483,-0.00009413,-0.00022292,-0.00032874,-0.
 00008980,-0.00020945,-0.00134886,-0.00049163,0.00293524,0.00022796,-0.
 00026736,0.00085476,0.00072600,0.00081221,-0.00029927,0.00053172,-0.00
 006074,-0.00009601,-0.00015646,-0.00060629,-0.00002431,-0.00009802,-0.
 00036067,0.00006010,-0.00029746,-0.00014512,0.00004913,-0.00030073,-0.
 00020615,0.00054482,-0.00015063,0.00007092,0.00009379,-0.00020647,-0.0
 0010461,0.00005396,-0.00023137,0.00008190,-0.00009683,-0.00005068,0.00
 029236,0.00000871,-0.00000796,0.00020930,0.00016933,0.00019167,0.00022
 024,-0.00008725,-0.18740068,-0.05341168,-0.02041612,-0.05850892,-0.000
 83599,-0.00392327,-0.00118303,0.00881853,-0.00189078,0.00091524,-0.003
 97383,-0.00218159,-0.00172760,0.00238308,-0.00295229,-0.00063509,-0.00
 077367,0.00042313,0.00193772,0.00053817,0.00091175,-0.00007160,0.00007
 719,-0.00038838,0.00001774,-0.00006146,-0.00004218,-0.00004709,0.00013
 963,0.00002677,-0.00144024,-0.00188173,0.00012887,-0.00061883,0.000616
 90,0.00076156,0.00175521,-0.00607535,0.00565123,0.00100726,0.00040266,
 -0.00137525,0.00803516,0.00566278,-0.00791821,-0.00012318,-0.00089456,
 0.00008728,-0.02228309,-0.00872173,0.00058228,-0.01568344,-0.01233131,
 -0.00745274,-0.00080876,0.00380315,-0.00121255,0.00078209,-0.00336374,
 0.00145858,0.00023077,-0.00055165,-0.00079021,0.00039502,-0.00025142,0
 .00093295,0.00037053,-0.00015050,-0.00119756,-0.00011989,0.00001885,0.
 00055498,0.00001061,-0.00030988,0.00001085,-0.00004219,-0.00023189,-0.
 00000049,0.00002350,-0.00025591,-0.00030852,-0.00002255,-0.00012752,0.
 00007825,0.00302575,-0.00111913,-0.00094624,0.39791879,-0.02949211,-0.
 08753842,0.06383751,0.00761269,0.00979403,-0.00658616,-0.01511453,-0.0
 1307706,0.02031407,-0.00029705,0.00069617,-0.00216902,-0.00222907,0.00
 117849,0.00123194,-0.00066630,0.00027394,0.00080333,-0.00166453,-0.000
 76928,-0.00206157,-0.00052107,-0.00082669,0.00043848,0.00087425,0.0006
 0389,-0.00118198,-0.00004211,-0.00000939,0.00005001,0.00006407,0.00017
 343,0.00015078,-0.00017194,-0.00001009,-0.00002789,-0.00009007,-0.0001
 1685,-0.00010535,-0.00031924,-0.00034273,-0.00006594,0.00012578,0.0000
 6898,0.00002557,-0.00020218,0.00012470,-0.00006458,-0.00016804,0.00035
 999,0.00014224,0.00019380,0.00007929,-0.00006502,-0.00031849,-0.000116
 23,0.00020620,0.00028987,-0.00021275,0.00015736,0.00030612,-0.00067278
 ,-0.00082320,0.00009120,0.00019791,-0.00011083,0.00008367,-0.00000352,
 -0.00002163,-0.00009982,0.00012473,-0.00003239,-0.00011136,0.00006639,
 -0.00003102,-0.00026546,0.00042390,0.00072006,-0.00019213,0.00017460,0
 .00023804,0.00024851,0.00012084,-0.00011900,0.00011568,-0.00005064,-0.
 00001457,-0.00030083,0.00004368,0.00012403,-0.00004372,-0.00001364,0.0
 0002837,-0.00011971,-0.00002154,0.00000167,-0.00008891,-0.00003907,0.0
 0016470,-0.00003774,0.00003176,0.00002962,-0.00003037,0.00000411,0.000
 00465,-0.00006094,0.00003187,-0.00003259,0.00015799,-0.00002290,-0.000
 01707,0.00007143,-0.00004610,-0.00007000,0.00015745,0.00004824,-0.0000
 6899,-0.05294789,-0.07767046,0.00058595,0.01375465,0.00859298,0.000948
 26,0.00322495,-0.00343072,0.00113639,-0.00073814,0.00078696,-0.0002752
 6,0.00776532,-0.00163537,-0.00273670,0.00042461,0.00072360,-0.00241653
 ,-0.00102642,-0.00046902,0.00253977,0.00003665,0.00021024,-0.00031215,
 0.00007840,-0.00011025,-0.00013618,0.00032740,0.00034138,0.00034067,0.
 00018427,0.00084433,-0.00007523,0.00122966,-0.00026724,0.00045431,-0.0
 0768823,0.00157718,-0.00411363,0.00176961,0.00000305,0.00458926,-0.007
 02149,-0.02618799,0.03592454,-0.00235884,0.00536616,-0.00141222,-0.020
 52474,-0.00427320,-0.00035924,-0.03271094,-0.01183197,-0.00853998,-0.0
 0021534,0.00132466,-0.00055784,0.00164991,-0.00468022,0.00239460,-0.00
 075329,0.00077230,-0.00016014,-0.00057225,-0.00000885,-0.00119137,0.00
 049397,-0.00088834,-0.00219755,-0.00042966,-0.00006191,0.00034846,-0.0
 0080317,-0.00030177,-0.00087792,-0.00000500,-0.00018003,0.00011107,0.0
 0009446,-0.00030373,-0.00048939,-0.00005733,-0.00011678,-0.00005975,0.
 00016332,-0.00072960,-0.00022916,0.13891076,0.20187331,0.03361048,0.05
 678346,-0.17610802,0.01872269,0.02383659,-0.03564640,0.00463954,0.0051
 9586,-0.00008745,0.00088253,-0.00056682,0.00165211,-0.00113550,-0.0061
 0588,0.00148717,-0.00212661,-0.00527851,-0.00359391,0.00159670,0.00132
 031,0.00031522,-0.00148116,-0.00089852,0.00148275,-0.00039915,-0.00020
 282,-0.00028239,-0.00006608,-0.00030080,-0.00025794,0.00006119,0.00016
 518,0.00026700,-0.00008902,-0.00023392,-0.00071526,0.00009391,0.000073
 91,0.00003378,0.00010056,0.00000286,0.00001189,0.00004896,0.00003585,0
 .00009614,0.00032294,0.00003630,0.00022106,0.00037335,-0.00006598,-0.0
 0032153,0.00024574,-0.00037939,0.00010377,-0.00031544,0.00051765,-0.00
 008290,-0.00038356,-0.00007752,-0.00045201,-0.00109594,-0.00007880,0.0
 0157639,0.00011907,-0.00022975,0.00002548,0.00013804,-0.00018666,0.000
 07858,0.00023144,0.00003390,0.00019918,0.00007218,0.00005299,0.0001593
 0,0.00086043,0.00034726,-0.00072521,0.00038522,0.00011747,-0.00042093,
 -0.00047219,-0.00043213,0.00020733,-0.00016805,0.00002083,-0.00001043,
 -0.00014163,0.00043782,-0.00012320,0.00007624,0.00021006,-0.00003063,0
 .00025120,0.00008934,-0.00000355,0.00016238,0.00010201,-0.00026421,0.0
 0004096,-0.00001062,-0.00000572,0.00005836,0.00002591,-0.00000775,0.00
 008598,-0.00003557,0.00005390,0.00018445,-0.00027368,0.00005583,0.0000
 5363,-0.00011817,-0.00006184,-0.00005673,-0.00013069,0.00008290,-0.006
 06986,0.00166985,-0.08190400,-0.00761327,0.00076844,-0.00013783,-0.000
 45503,0.00028301,0.00067167,0.00016871,0.00048674,-0.00006663,-0.00478
 867,0.00070070,0.00361897,-0.00120694,-0.00139536,0.00326560,0.0010027
 7,0.00008425,-0.00135286,-0.00003145,-0.00009414,0.00012053,-0.0000795
 1,0.00012393,0.00013237,-0.00011974,-0.00032178,-0.00021035,0.00005004
 ,-0.00004032,0.00000814,0.00059652,-0.00013173,0.00043184,0.00802335,-
 0.00161593,0.00454897,-0.00224956,0.00040302,-0.00632899,0.00075868,0.
 02519813,-0.02513697,0.00135505,-0.00144338,0.00108143,0.03274079,0.01
 113665,0.00449641,-0.02328001,-0.01021234,-0.00003576,-0.00066178,0.00
 121639,0.00011991,0.00065704,-0.00199889,0.00049901,0.00025992,0.00036
 065,-0.00049585,0.00018937,-0.00094612,0.00003105,0.00070756,-0.000098
 02,-0.00134723,-0.00031775,-0.00003701,0.00052858,-0.00033237,0.000234
 77,-0.00006436,0.00002244,0.00003300,0.00004405,0.00004112,-0.00009149
 ,-0.00012862,-0.00006363,-0.00007279,0.00011013,-0.00155645,0.00023330
 ,-0.00025241,-0.05323446,-0.09823290,0.30884473\\0.00000452,0.00000535
 ,0.00000144,-0.00000063,-0.00000077,0.00000492,0.00000410,0.00000829,-
 0.00000651,0.00000528,0.00000365,-0.00000328,-0.00000182,-0.00000345,0
 .00000040,-0.00000440,-0.00000070,0.00000196,0.00000927,0.00000176,-0.
 00000953,-0.00000811,-0.00000492,0.00000729,0.00001003,0.00000476,-0.0
 0001405,-0.00000866,-0.00000536,0.00000823,-0.00000858,-0.00000758,0.0
 0000349,-0.00000867,-0.00000383,0.00000959,0.00001271,0.00000282,-0.00
 001669,0.00001383,0.00000467,-0.00001352,0.00000889,-0.00000110,-0.000
 01517,0.00000310,-0.00000634,-0.00001337,-0.00000605,-0.00001391,-0.00
 000416,-0.00000176,-0.00000568,-0.00000321,-0.00000880,-0.00000188,0.0
 0000408,0.00000405,0.00000110,-0.00001983,-0.00000191,-0.00000905,-0.0
 0001093,-0.00000533,-0.00001153,0.00000116,-0.00000647,-0.00000386,0.0
 0000377,0.00000340,0.00000002,-0.00001164,0.00001072,0.00000029,-0.000
 01711,0.00000033,-0.00000315,-0.00000588,-0.00000450,-0.00001086,-0.00
 000484,-0.00000356,-0.00001296,-0.00001546,0.00000513,-0.00000646,-0.0
 0001767,-0.00000876,-0.00000160,0.00000513,-0.00000033,-0.00001223,-0.
 00001711,-0.00000150,-0.00001484,-0.00001625,-0.00000726,-0.00001834,-
 0.00001342,0.00000099,-0.00001085,-0.00001711,0.00000616,-0.00000875,-
 0.00002340,0.00000654,-0.00000518,-0.00001850,-0.00000850,-0.00000711,
 0.00000868,-0.00001420,-0.00000980,0.00000930,-0.00001046,-0.00000419,
 0.00001514,0.00000513,0.00000816,0.00000815,0.00000384,0.00001268,0.00
 000669,0.00000381,0.00001378,0.00001112,0.00001005,0.00001484,0.000002
 45,0.00000196,0.00000009,-0.00000559,0.00000124,0.00000105,-0.00000123
 ,0.00000059,-0.00000094,-0.00000169,0.00000279,-0.00000225,-0.00000865
 ,-0.00000315,0.00000056,0.00000498,-0.00000112,-0.00000441,-0.00000442
 ,0.00000546,0.00001632,0.00001497,0.00001347,0.00001673,0.00000126,0.0
 0000191,0.00000827,0.00000213,0.00000181,0.00000384,0.00000853,0.00000
 455,0.00000464,0.00000135,0.00000818,0.00000696,-0.00000364,0.00000610
 ,0.00001437,0.00000951,0.00000062,0.00000815,0.00001334,-0.00000119,0.
 00000757,0.00001261,-0.00000277,0.00000618,0.00001419,-0.00000542,0.00
 000484,0.00001671,-0.00000009,0.00000802,0.00000983,-0.00000678,0.0000
 0428,0.00001866,-0.00000276,0.00000687,0.00001368,-0.00000868,0.000003
 72,0.00001855,-0.00000641,0.00000442,0.00001719,-0.00000927,0.00000370
 ,0.00002056,-0.00001128,0.00000224,0.00002234,0.00000321,-0.00000793,0
 .00000074,0.00000542,0.00000681,-0.00000027\\\@


 HICKORY, DICKORY, DOCK
 TWO MICE RAN UP THE CLOCK
 THE CLOCK STRUCK ONE...
 THE OTHER ESCAPED WITH MINOR INJURIES.
 Job cpu time:       3 days 20 hours 33 minutes 57.6 seconds.
 Elapsed time:       0 days  3 hours 51 minutes 39.4 seconds.
 File lengths (MBytes):  RWF=  13864 Int=      0 D2E=      0 Chk=     92 Scr=      8
 Normal termination of Gaussian 16 at Wed Feb 12 17:37:55 2025.
