 Entering Gaussian System, Link 0=/sysapps/ubuntu-applications/gaussian-new/avx/g16//g16
 Input=preplx.in
 Output=preplx.log
 Initial command:
 /sysapps/ubuntu-applications/gaussian-new/avx/g16/l1.exe "/data/temp-scratch/selhajj1/309279/Gau-1628603.inp" -scrdir="/data/temp-scratch/selhajj1/309279/"
 Entering Link 1 = /sysapps/ubuntu-applications/gaussian-new/avx/g16/l1.exe PID=   1628605.
  
 Copyright (c) 1988,1990,1992,1993,1995,1998,2003,2009,2016,
            Gaussian, Inc.  All Rights Reserved.
  
 This is part of the Gaussian(R) 16 program.  It is based on
 the Gaussian(R) 09 system (copyright 2009, Gaussian, Inc.),
 the Gaussian(R) 03 system (copyright 2003, Gaussian, Inc.),
 the Gaussian(R) 98 system (copyright 1998, Gaussian, Inc.),
 the Gaussian(R) 94 system (copyright 1995, Gaussian, Inc.),
 the Gaussian 92(TM) system (copyright 1992, Gaussian, Inc.),
 the Gaussian 90(TM) system (copyright 1990, Gaussian, Inc.),
 the Gaussian 88(TM) system (copyright 1988, Gaussian, Inc.),
 the Gaussian 86(TM) system (copyright 1986, Carnegie Mellon
 University), and the Gaussian 82(TM) system (copyright 1983,
 Carnegie Mellon University). Gaussian is a federally registered
 trademark of Gaussian, Inc.
  
 This software contains proprietary and confidential information,
 including trade secrets, belonging to Gaussian, Inc.
  
 This software is provided under written license and may be
 used, copied, transmitted, or stored only in accord with that
 written license.
  
 The following legend is applicable only to US Government
 contracts under FAR:
  
                    RESTRICTED RIGHTS LEGEND
  
 Use, reproduction and disclosure by the US Government is
 subject to restrictions as set forth in subparagraphs (a)
 and (c) of the Commercial Computer Software - Restricted
 Rights clause in FAR 52.227-19.
  
 Gaussian, Inc.
 340 Quinnipiac St., Bldg. 40, Wallingford CT 06492
  
  
 ---------------------------------------------------------------
 Warning -- This program may not be used in any manner that
 competes with the business of Gaussian, Inc. or will provide
 assistance to any competitor of Gaussian, Inc.  The licensee
 of this program is prohibited from giving any competitor of
 Gaussian, Inc. access to this program.  By using this program,
 the user acknowledges that Gaussian, Inc. is engaged in the
 business of creating and licensing software in the field of
 computational chemistry and represents and warrants to the
 licensee that it is not a competitor of Gaussian, Inc. and that
 it will not use this program in any manner prohibited above.
 ---------------------------------------------------------------
  

 Cite this work as:
 Gaussian 16, Revision A.03,
 M. J. Frisch, G. W. Trucks, H. B. Schlegel, G. E. Scuseria, 
 M. A. Robb, J. R. Cheeseman, G. Scalmani, V. Barone, 
 G. A. Petersson, H. Nakatsuji, X. Li, M. Caricato, A. V. Marenich, 
 J. Bloino, B. G. Janesko, R. Gomperts, B. Mennucci, H. P. Hratchian, 
 J. V. Ortiz, A. F. Izmaylov, J. L. Sonnenberg, D. Williams-Young, 
 F. Ding, F. Lipparini, F. Egidi, J. Goings, B. Peng, A. Petrone, 
 T. Henderson, D. Ranasinghe, V. G. Zakrzewski, J. Gao, N. Rega, 
 G. Zheng, W. Liang, M. Hada, M. Ehara, K. Toyota, R. Fukuda, 
 J. Hasegawa, M. Ishida, T. Nakajima, Y. Honda, O. Kitao, H. Nakai, 
 T. Vreven, K. Throssell, J. A. Montgomery, Jr., J. E. Peralta, 
 F. Ogliaro, M. J. Bearpark, J. J. Heyd, E. N. Brothers, K. N. Kudin, 
 V. N. Staroverov, T. A. Keith, R. Kobayashi, J. Normand, 
 K. Raghavachari, A. P. Rendell, J. C. Burant, S. S. Iyengar, 
 J. Tomasi, M. Cossi, J. M. Millam, M. Klene, C. Adamo, R. Cammi, 
 J. W. Ochterski, R. L. Martin, K. Morokuma, O. Farkas, 
 J. B. Foresman, and D. J. Fox, Gaussian, Inc., Wallingford CT, 2016.
 
 ******************************************
 Gaussian 16:  ES64L-G16RevA.03 25-Dec-2016
                 2-May-2025 
 ******************************************
 %chk=preplx.chk
 %mem=616Gb
 %nprocshared=24
 Will use up to   24 processors via shared memory.
 ----------------------------------------------------------------------
 #P UMN15/genecp scf=(maxcyc=500) opt scrf=(smd,solvent=DiChloroEthane)
 ----------------------------------------------------------------------
 1/18=20,19=15,26=3,38=1/1,3;
 2/9=110,12=2,17=6,18=5,40=1/2;
 3/5=7,11=2,16=1,17=8,25=1,30=1,70=32201,71=1,72=10,74=-73,116=2/1,2,3;
 4//1;
 5/5=2,7=500,38=5,53=10/2;
 6/7=2,8=2,9=2,10=2,28=1/1;
 7//1,2,3,16;
 1/18=20,19=15,26=3/3(2);
 2/9=110/2;
 99//99;
 2/9=110/2;
 3/5=7,6=1,11=2,16=1,17=8,25=1,30=1,70=32205,71=1,72=10,74=-73,82=7,116=2/1,2,3;
 4/5=5,16=3,69=1/1;
 5/5=2,7=500,38=5,53=10/2;
 7//1,2,3,16;
 1/18=20,19=15,26=3/3(-5);
 2/9=110/2;
 6/7=2,8=2,9=2,10=2,19=2,28=1/1;
 99/9=1/99;
 Leave Link    1 at Fri May  2 16:23:19 2025, MaxMem= 82678120448 cpu:               5.4 elap:               0.3
 (Enter /sysapps/ubuntu-applications/gaussian-new/avx/g16/l101.exe)
 ---
 Opt
 ---
 Symbolic Z-matrix:
 Charge =  0 Multiplicity = 1
 C                    -4.65159   1.20129   0.99184 
 C                    -5.96949   0.80494   0.73906 
 C                    -6.88961   0.7256    1.78684 
 C                    -6.49825   1.05414   3.08542 
 C                    -5.1901    1.48448   3.33394 
 C                    -4.27035   1.56584   2.29019 
 C                    -2.32602   0.66413  -0.13433 
 C                    -1.62676   0.33734  -1.43692 
 C                    -1.69725  -0.03526   1.05433 
 H                    -6.27054   0.55466  -0.28135 
 H                    -7.91474   0.40705   1.58592 
 H                    -7.21602   0.98908   3.9063 
 H                    -4.88876   1.76389   4.34595 
 H                    -3.25189   1.9172    2.48047 
 O                    -0.49177   0.04604   1.28454 
 O                    -0.40582   0.17395  -1.4898 
 O                     2.40773  -0.19992   1.88089 
 O                     2.703    -0.62679  -1.42254 
 O                     0.34513   2.57907   0.34166 
 S                     1.01179   3.30358  -0.79318 
 S                     3.41896   0.90516   1.98613 
 S                     2.09883  -1.99233  -1.26522 
 O                     1.68682   2.23193  -1.58675 
 O                     1.75548   4.49383  -0.47843 
 O                     3.15492   1.76146   0.78971 
 O                     3.57292   1.54511   3.26403 
 O                     1.06083  -1.8394   -0.20553 
 O                     1.74105  -2.68634  -2.47777 
 C                     3.42499  -3.01202  -0.48563 
 C                     5.03141   0.08869   1.62649 
 C                    -0.38634   3.88414  -1.84685 
 F                     3.06233  -4.28006  -0.54992 
 F                     3.57823  -2.661     0.77556 
 F                     4.55145  -2.83421  -1.14367 
 F                     5.04693  -0.33678   0.37664 
 F                     5.1876   -0.93033   2.44824 
 F                     5.99847   0.96447   1.80961 
 F                    -1.02124   2.8526   -2.38302 
 F                     0.09952   4.64098  -2.81069 
 F                    -1.21958   4.58258  -1.10584 
 C                    -3.6892    1.25592  -0.14485 
 H                    -4.14761   1.314    -1.13892 
 C                    -4.18887  -2.38478  -0.31556 
 C                    -4.76369  -1.68804  -1.39726 
 C                    -4.81029  -2.44357   0.9467 
 C                    -1.20815  -4.47772   0.18823 
 C                    -1.23308  -3.43261  -1.93871 
 C                    -0.59878  -4.30327  -1.04531 
 H                    -0.7861   -5.12123   0.96106 
 H                    -0.80328  -3.21062  -2.91827 
 H                     0.3419   -4.78518  -1.30956 
 N                    -5.28077  -1.09341  -2.25832 
 N                    -5.29273  -2.50038   2.00855 
 N                    -2.95406  -3.02215  -0.50112 
 N                    -2.36814  -2.80569  -1.67611 
 C                    -2.40129  -3.81911   0.44726 
 H                    -2.95588  -3.9268    1.37998 
 Lu                    1.32172   0.52488  -0.01588 
 O                    -2.52566   2.05188   0.01652 
 C                    -2.58272  -0.77445   1.85023 
 H                    -2.1595   -1.73525   2.05675 
 H                    -2.75415  -0.25508   2.76988 
 H                    -3.51059  -0.89741   1.33174 
 C                    -2.46385   0.30304  -2.56031 
 H                    -3.12269  -0.53702  -2.48866 
 H                    -3.03871   1.20442  -2.60441 
 H                    -1.86929   0.21552  -3.4456 
 
 Add virtual bond connecting atoms H63        and C45        Dist= 3.89D+00.
 ITRead=  0  0  0  0  0  0  0  0  0  0  0  0  0  0  0  0  0  0  0  0
 ITRead=  0  0  0  0  0  0  0  0  0  0  0  0  0  0  0  0  0  0  0  0
 ITRead=  0  0  0  0  0  0  0  0  0  0  0  0  0  0  0  0  0  0  0  0
 ITRead=  0  0  0  0  0  0  0
 MicOpt= -1 -1 -1 -1 -1 -1 -1 -1 -1 -1 -1 -1 -1 -1 -1 -1 -1 -1 -1 -1
 MicOpt= -1 -1 -1 -1 -1 -1 -1 -1 -1 -1 -1 -1 -1 -1 -1 -1 -1 -1 -1 -1
 MicOpt= -1 -1 -1 -1 -1 -1 -1 -1 -1 -1 -1 -1 -1 -1 -1 -1 -1 -1 -1 -1
 MicOpt= -1 -1 -1 -1 -1 -1 -1
 NAtoms=     67 NQM=       67 NQMF=       0 NMMI=      0 NMMIF=      0
                NMic=       0 NMicF=      0.
                    Isotopes and Nuclear Properties:
 (Nuclear quadrupole moments (NQMom) in fm**2, nuclear magnetic moments (NMagM)
  in nuclear magnetons)

  Atom         1           2           3           4           5           6           7           8           9          10
 IAtWgt=          12          12          12          12          12          12          12          12          12           1
 AtmWgt=  12.0000000  12.0000000  12.0000000  12.0000000  12.0000000  12.0000000  12.0000000  12.0000000  12.0000000   1.0078250
 NucSpn=           0           0           0           0           0           0           0           0           0           1
 AtZEff=  -0.0000000  -0.0000000  -0.0000000  -0.0000000  -0.0000000  -0.0000000  -0.0000000  -0.0000000  -0.0000000  -0.0000000
 NQMom=    0.0000000   0.0000000   0.0000000   0.0000000   0.0000000   0.0000000   0.0000000   0.0000000   0.0000000   0.0000000
 NMagM=    0.0000000   0.0000000   0.0000000   0.0000000   0.0000000   0.0000000   0.0000000   0.0000000   0.0000000   2.7928460
 AtZNuc=   6.0000000   6.0000000   6.0000000   6.0000000   6.0000000   6.0000000   6.0000000   6.0000000   6.0000000   1.0000000

  Atom        11          12          13          14          15          16          17          18          19          20
 IAtWgt=           1           1           1           1          16          16          16          16          16          32
 AtmWgt=   1.0078250   1.0078250   1.0078250   1.0078250  15.9949146  15.9949146  15.9949146  15.9949146  15.9949146  31.9720718
 NucSpn=           1           1           1           1           0           0           0           0           0           0
 AtZEff=  -0.0000000  -0.0000000  -0.0000000  -0.0000000  -0.0000000  -0.0000000  -0.0000000  -0.0000000  -0.0000000  -0.0000000
 NQMom=    0.0000000   0.0000000   0.0000000   0.0000000   0.0000000   0.0000000   0.0000000   0.0000000   0.0000000   0.0000000
 NMagM=    2.7928460   2.7928460   2.7928460   2.7928460   0.0000000   0.0000000   0.0000000   0.0000000   0.0000000   0.0000000
 AtZNuc=   1.0000000   1.0000000   1.0000000   1.0000000   8.0000000   8.0000000   8.0000000   8.0000000   8.0000000  16.0000000

  Atom        21          22          23          24          25          26          27          28          29          30
 IAtWgt=          32          32          16          16          16          16          16          16          12          12
 AtmWgt=  31.9720718  31.9720718  15.9949146  15.9949146  15.9949146  15.9949146  15.9949146  15.9949146  12.0000000  12.0000000
 NucSpn=           0           0           0           0           0           0           0           0           0           0
 AtZEff=  -0.0000000  -0.0000000  -0.0000000  -0.0000000  -0.0000000  -0.0000000  -0.0000000  -0.0000000  -0.0000000  -0.0000000
 NQMom=    0.0000000   0.0000000   0.0000000   0.0000000   0.0000000   0.0000000   0.0000000   0.0000000   0.0000000   0.0000000
 NMagM=    0.0000000   0.0000000   0.0000000   0.0000000   0.0000000   0.0000000   0.0000000   0.0000000   0.0000000   0.0000000
 AtZNuc=  16.0000000  16.0000000   8.0000000   8.0000000   8.0000000   8.0000000   8.0000000   8.0000000   6.0000000   6.0000000

  Atom        31          32          33          34          35          36          37          38          39          40
 IAtWgt=          12          19          19          19          19          19          19          19          19          19
 AtmWgt=  12.0000000  18.9984032  18.9984032  18.9984032  18.9984032  18.9984032  18.9984032  18.9984032  18.9984032  18.9984032
 NucSpn=           0           1           1           1           1           1           1           1           1           1
 AtZEff=  -0.0000000  -0.0000000  -0.0000000  -0.0000000  -0.0000000  -0.0000000  -0.0000000  -0.0000000  -0.0000000  -0.0000000
 NQMom=    0.0000000   0.0000000   0.0000000   0.0000000   0.0000000   0.0000000   0.0000000   0.0000000   0.0000000   0.0000000
 NMagM=    0.0000000   2.6288670   2.6288670   2.6288670   2.6288670   2.6288670   2.6288670   2.6288670   2.6288670   2.6288670
 AtZNuc=   6.0000000   9.0000000   9.0000000   9.0000000   9.0000000   9.0000000   9.0000000   9.0000000   9.0000000   9.0000000

  Atom        41          42          43          44          45          46          47          48          49          50
 IAtWgt=          12           1          12          12          12          12          12          12           1           1
 AtmWgt=  12.0000000   1.0078250  12.0000000  12.0000000  12.0000000  12.0000000  12.0000000  12.0000000   1.0078250   1.0078250
 NucSpn=           0           1           0           0           0           0           0           0           1           1
 AtZEff=  -0.0000000  -0.0000000  -0.0000000  -0.0000000  -0.0000000  -0.0000000  -0.0000000  -0.0000000  -0.0000000  -0.0000000
 NQMom=    0.0000000   0.0000000   0.0000000   0.0000000   0.0000000   0.0000000   0.0000000   0.0000000   0.0000000   0.0000000
 NMagM=    0.0000000   2.7928460   0.0000000   0.0000000   0.0000000   0.0000000   0.0000000   0.0000000   2.7928460   2.7928460
 AtZNuc=   6.0000000   1.0000000   6.0000000   6.0000000   6.0000000   6.0000000   6.0000000   6.0000000   1.0000000   1.0000000

  Atom        51          52          53          54          55          56          57          58          59          60
 IAtWgt=           1          14          14          14          14          12           1         175          16          12
 AtmWgt=   1.0078250  14.0030740  14.0030740  14.0030740  14.0030740  12.0000000   1.0078250 174.9409000  15.9949146  12.0000000
 NucSpn=           1           2           2           2           2           0           1           7           0           0
 AtZEff=  -0.0000000  -0.0000000  -0.0000000  -0.0000000  -0.0000000  -0.0000000  -0.0000000  -0.0000000  -0.0000000  -0.0000000
 NQMom=    0.0000000   2.0440000   2.0440000   2.0440000   2.0440000   0.0000000   0.0000000 349.0000000   0.0000000   0.0000000
 NMagM=    2.7928460   0.4037610   0.4037610   0.4037610   0.4037610   0.0000000   2.7928460   2.2327000   0.0000000   0.0000000
 AtZNuc=   1.0000000   7.0000000   7.0000000   7.0000000   7.0000000   6.0000000   1.0000000  71.0000000   8.0000000   6.0000000

  Atom        61          62          63          64          65          66          67
 IAtWgt=           1           1           1          12           1           1           1
 AtmWgt=   1.0078250   1.0078250   1.0078250  12.0000000   1.0078250   1.0078250   1.0078250
 NucSpn=           1           1           1           0           1           1           1
 AtZEff=  -0.0000000  -0.0000000  -0.0000000  -0.0000000  -0.0000000  -0.0000000  -0.0000000
 NQMom=    0.0000000   0.0000000   0.0000000   0.0000000   0.0000000   0.0000000   0.0000000
 NMagM=    2.7928460   2.7928460   2.7928460   0.0000000   2.7928460   2.7928460   2.7928460
 AtZNuc=   1.0000000   1.0000000   1.0000000   6.0000000   1.0000000   1.0000000   1.0000000
 Leave Link  101 at Fri May  2 16:23:19 2025, MaxMem= 82678120448 cpu:              18.8 elap:               0.8
 (Enter /sysapps/ubuntu-applications/gaussian-new/avx/g16/l103.exe)

 GradGradGradGradGradGradGradGradGradGradGradGradGradGradGradGradGradGrad
 Berny optimization.
 Initialization pass.
                           ----------------------------
                           !    Initial Parameters    !
                           ! (Angstroms and Degrees)  !
 --------------------------                            --------------------------
 ! Name  Definition              Value          Derivative Info.                !
 --------------------------------------------------------------------------------
 ! R1    R(1,2)                  1.3992         estimate D2E/DX2                !
 ! R2    R(1,6)                  1.4014         estimate D2E/DX2                !
 ! R3    R(1,41)                 1.4904         estimate D2E/DX2                !
 ! R4    R(2,3)                  1.3967         estimate D2E/DX2                !
 ! R5    R(2,10)                 1.0929         estimate D2E/DX2                !
 ! R6    R(3,4)                  1.3955         estimate D2E/DX2                !
 ! R7    R(3,11)                 1.0921         estimate D2E/DX2                !
 ! R8    R(4,5)                  1.3994         estimate D2E/DX2                !
 ! R9    R(4,12)                 1.0924         estimate D2E/DX2                !
 ! R10   R(5,6)                  1.3935         estimate D2E/DX2                !
 ! R11   R(5,13)                 1.0923         estimate D2E/DX2                !
 ! R12   R(6,14)                 1.094          estimate D2E/DX2                !
 ! R13   R(7,8)                  1.5141         estimate D2E/DX2                !
 ! R14   R(7,9)                  1.5157         estimate D2E/DX2                !
 ! R15   R(7,41)                 1.4861         estimate D2E/DX2                !
 ! R16   R(7,59)                 1.4101         estimate D2E/DX2                !
 ! R17   R(8,16)                 1.233          estimate D2E/DX2                !
 ! R18   R(8,64)                 1.4014         estimate D2E/DX2                !
 ! R19   R(9,15)                 1.2299         estimate D2E/DX2                !
 ! R20   R(9,60)                 1.4014         estimate D2E/DX2                !
 ! R21   R(15,58)                2.2824         estimate D2E/DX2                !
 ! R22   R(16,58)                2.2978         estimate D2E/DX2                !
 ! R23   R(17,21)                1.5016         estimate D2E/DX2                !
 ! R24   R(17,58)                2.3027         estimate D2E/DX2                !
 ! R25   R(18,22)                1.5015         estimate D2E/DX2                !
 ! R26   R(18,58)                2.2832         estimate D2E/DX2                !
 ! R27   R(19,20)                1.5024         estimate D2E/DX2                !
 ! R28   R(19,58)                2.3024         estimate D2E/DX2                !
 ! R29   R(20,23)                1.4946         estimate D2E/DX2                !
 ! R30   R(20,24)                1.4383         estimate D2E/DX2                !
 ! R31   R(20,31)                1.8445         estimate D2E/DX2                !
 ! R32   R(20,58)                2.902          estimate D2E/DX2                !
 ! R33   R(21,25)                1.4948         estimate D2E/DX2                !
 ! R34   R(21,26)                1.4375         estimate D2E/DX2                !
 ! R35   R(21,30)                1.8428         estimate D2E/DX2                !
 ! R36   R(21,58)                2.9242         estimate D2E/DX2                !
 ! R37   R(22,27)                1.4912         estimate D2E/DX2                !
 ! R38   R(22,28)                1.4422         estimate D2E/DX2                !
 ! R39   R(22,29)                1.8456         estimate D2E/DX2                !
 ! R40   R(22,58)                2.9157         estimate D2E/DX2                !
 ! R41   R(23,58)                2.3484         estimate D2E/DX2                !
 ! R42   R(25,58)                2.3534         estimate D2E/DX2                !
 ! R43   R(27,58)                2.3862         estimate D2E/DX2                !
 ! R44   R(29,32)                1.3204         estimate D2E/DX2                !
 ! R45   R(29,33)                1.3181         estimate D2E/DX2                !
 ! R46   R(29,34)                1.3166         estimate D2E/DX2                !
 ! R47   R(30,35)                1.3204         estimate D2E/DX2                !
 ! R48   R(30,36)                1.3184         estimate D2E/DX2                !
 ! R49   R(30,37)                1.3175         estimate D2E/DX2                !
 ! R50   R(31,38)                1.3246         estimate D2E/DX2                !
 ! R51   R(31,39)                1.3183         estimate D2E/DX2                !
 ! R52   R(31,40)                1.3158         estimate D2E/DX2                !
 ! R53   R(41,42)                1.0962         estimate D2E/DX2                !
 ! R54   R(41,59)                1.419          estimate D2E/DX2                !
 ! R55   R(43,44)                1.4092         estimate D2E/DX2                !
 ! R56   R(43,45)                1.4082         estimate D2E/DX2                !
 ! R57   R(43,54)                1.4019         estimate D2E/DX2                !
 ! R58   R(44,52)                1.1672         estimate D2E/DX2                !
 ! R59   R(45,53)                1.1677         estimate D2E/DX2                !
 ! R60   R(45,63)                2.0562         estimate D2E/DX2                !
 ! R61   R(46,48)                1.3869         estimate D2E/DX2                !
 ! R62   R(46,49)                1.0906         estimate D2E/DX2                !
 ! R63   R(46,56)                1.3873         estimate D2E/DX2                !
 ! R64   R(47,48)                1.3995         estimate D2E/DX2                !
 ! R65   R(47,50)                1.0925         estimate D2E/DX2                !
 ! R66   R(47,55)                1.323          estimate D2E/DX2                !
 ! R67   R(48,51)                1.0895         estimate D2E/DX2                !
 ! R68   R(54,55)                1.3307         estimate D2E/DX2                !
 ! R69   R(54,56)                1.3565         estimate D2E/DX2                !
 ! R70   R(56,57)                1.0905         estimate D2E/DX2                !
 ! R71   R(60,61)                1.07           estimate D2E/DX2                !
 ! R72   R(60,62)                1.07           estimate D2E/DX2                !
 ! R73   R(60,63)                1.07           estimate D2E/DX2                !
 ! R74   R(64,65)                1.07           estimate D2E/DX2                !
 ! R75   R(64,66)                1.07           estimate D2E/DX2                !
 ! R76   R(64,67)                1.07           estimate D2E/DX2                !
 ! A1    A(2,1,6)              119.8207         estimate D2E/DX2                !
 ! A2    A(2,1,41)             118.7375         estimate D2E/DX2                !
 ! A3    A(6,1,41)             121.4256         estimate D2E/DX2                !
 ! A4    A(1,2,3)              120.0697         estimate D2E/DX2                !
 ! A5    A(1,2,10)             119.5368         estimate D2E/DX2                !
 ! A6    A(3,2,10)             120.3929         estimate D2E/DX2                !
 ! A7    A(2,3,4)              119.9975         estimate D2E/DX2                !
 ! A8    A(2,3,11)             119.797          estimate D2E/DX2                !
 ! A9    A(4,3,11)             120.2054         estimate D2E/DX2                !
 ! A10   A(3,4,5)              119.9883         estimate D2E/DX2                !
 ! A11   A(3,4,12)             120.0653         estimate D2E/DX2                !
 ! A12   A(5,4,12)             119.9409         estimate D2E/DX2                !
 ! A13   A(4,5,6)              120.1272         estimate D2E/DX2                !
 ! A14   A(4,5,13)             120.0737         estimate D2E/DX2                !
 ! A15   A(6,5,13)             119.7979         estimate D2E/DX2                !
 ! A16   A(1,6,5)              119.9453         estimate D2E/DX2                !
 ! A17   A(1,6,14)             119.8626         estimate D2E/DX2                !
 ! A18   A(5,6,14)             120.1918         estimate D2E/DX2                !
 ! A19   A(8,7,9)              112.5505         estimate D2E/DX2                !
 ! A20   A(8,7,41)             120.2302         estimate D2E/DX2                !
 ! A21   A(8,7,59)             111.7044         estimate D2E/DX2                !
 ! A22   A(9,7,41)             124.7371         estimate D2E/DX2                !
 ! A23   A(9,7,59)             115.4002         estimate D2E/DX2                !
 ! A24   A(7,8,16)             121.5224         estimate D2E/DX2                !
 ! A25   A(7,8,64)             114.7754         estimate D2E/DX2                !
 ! A26   A(16,8,64)            123.6333         estimate D2E/DX2                !
 ! A27   A(7,9,15)             121.5245         estimate D2E/DX2                !
 ! A28   A(7,9,60)             115.2553         estimate D2E/DX2                !
 ! A29   A(15,9,60)            123.2192         estimate D2E/DX2                !
 ! A30   A(9,15,58)            133.3133         estimate D2E/DX2                !
 ! A31   A(8,16,58)            134.1658         estimate D2E/DX2                !
 ! A32   A(19,20,23)           104.8146         estimate D2E/DX2                !
 ! A33   A(19,20,24)           117.5938         estimate D2E/DX2                !
 ! A34   A(19,20,31)           104.2963         estimate D2E/DX2                !
 ! A35   A(23,20,24)           118.4247         estimate D2E/DX2                !
 ! A36   A(23,20,31)           105.3502         estimate D2E/DX2                !
 ! A37   A(24,20,31)           104.8608         estimate D2E/DX2                !
 ! A38   A(24,20,58)           132.729          estimate D2E/DX2                !
 ! A39   A(31,20,58)           122.3679         estimate D2E/DX2                !
 ! A40   A(17,21,25)           104.2722         estimate D2E/DX2                !
 ! A41   A(17,21,26)           117.5208         estimate D2E/DX2                !
 ! A42   A(17,21,30)           104.4482         estimate D2E/DX2                !
 ! A43   A(25,21,26)           118.3883         estimate D2E/DX2                !
 ! A44   A(25,21,30)           104.6053         estimate D2E/DX2                !
 ! A45   A(26,21,30)           106.0827         estimate D2E/DX2                !
 ! A46   A(26,21,58)           138.018          estimate D2E/DX2                !
 ! A47   A(30,21,58)           115.8686         estimate D2E/DX2                !
 ! A48   A(18,22,27)           105.1458         estimate D2E/DX2                !
 ! A49   A(18,22,28)           116.7033         estimate D2E/DX2                !
 ! A50   A(18,22,29)           104.9278         estimate D2E/DX2                !
 ! A51   A(27,22,28)           118.3026         estimate D2E/DX2                !
 ! A52   A(27,22,29)           104.8717         estimate D2E/DX2                !
 ! A53   A(28,22,29)           105.5176         estimate D2E/DX2                !
 ! A54   A(28,22,58)           135.2018         estimate D2E/DX2                !
 ! A55   A(29,22,58)           119.1772         estimate D2E/DX2                !
 ! A56   A(22,29,32)           108.2192         estimate D2E/DX2                !
 ! A57   A(22,29,33)           109.9121         estimate D2E/DX2                !
 ! A58   A(22,29,34)           109.2103         estimate D2E/DX2                !
 ! A59   A(32,29,33)           109.5278         estimate D2E/DX2                !
 ! A60   A(32,29,34)           109.897          estimate D2E/DX2                !
 ! A61   A(33,29,34)           110.0469         estimate D2E/DX2                !
 ! A62   A(21,30,35)           109.7423         estimate D2E/DX2                !
 ! A63   A(21,30,36)           108.9339         estimate D2E/DX2                !
 ! A64   A(21,30,37)           108.7003         estimate D2E/DX2                !
 ! A65   A(35,30,36)           109.8506         estimate D2E/DX2                !
 ! A66   A(35,30,37)           109.7024         estimate D2E/DX2                !
 ! A67   A(36,30,37)           109.8899         estimate D2E/DX2                !
 ! A68   A(20,31,38)           110.4528         estimate D2E/DX2                !
 ! A69   A(20,31,39)           108.6029         estimate D2E/DX2                !
 ! A70   A(20,31,40)           108.9889         estimate D2E/DX2                !
 ! A71   A(38,31,39)           109.1352         estimate D2E/DX2                !
 ! A72   A(38,31,40)           109.7432         estimate D2E/DX2                !
 ! A73   A(39,31,40)           109.9014         estimate D2E/DX2                !
 ! A74   A(1,41,7)             124.9117         estimate D2E/DX2                !
 ! A75   A(1,41,42)            115.0572         estimate D2E/DX2                !
 ! A76   A(1,41,59)            117.6019         estimate D2E/DX2                !
 ! A77   A(7,41,42)            114.2741         estimate D2E/DX2                !
 ! A78   A(42,41,59)           114.602          estimate D2E/DX2                !
 ! A79   A(44,43,45)           121.9168         estimate D2E/DX2                !
 ! A80   A(44,43,54)           118.8454         estimate D2E/DX2                !
 ! A81   A(45,43,54)           119.2327         estimate D2E/DX2                !
 ! A82   A(43,45,63)            81.8088         estimate D2E/DX2                !
 ! A83   A(53,45,63)            97.3222         estimate D2E/DX2                !
 ! A84   A(48,46,49)           122.307          estimate D2E/DX2                !
 ! A85   A(48,46,56)           118.9644         estimate D2E/DX2                !
 ! A86   A(49,46,56)           118.7271         estimate D2E/DX2                !
 ! A87   A(48,47,50)           121.3644         estimate D2E/DX2                !
 ! A88   A(48,47,55)           123.8452         estimate D2E/DX2                !
 ! A89   A(50,47,55)           114.7848         estimate D2E/DX2                !
 ! A90   A(46,48,47)           116.5456         estimate D2E/DX2                !
 ! A91   A(46,48,51)           122.6475         estimate D2E/DX2                !
 ! A92   A(47,48,51)           120.7771         estimate D2E/DX2                !
 ! A93   A(43,54,55)           115.5142         estimate D2E/DX2                !
 ! A94   A(43,54,56)           122.2408         estimate D2E/DX2                !
 ! A95   A(55,54,56)           122.2404         estimate D2E/DX2                !
 ! A96   A(47,55,54)           118.4201         estimate D2E/DX2                !
 ! A97   A(46,56,54)           119.9246         estimate D2E/DX2                !
 ! A98   A(46,56,57)           123.3836         estimate D2E/DX2                !
 ! A99   A(54,56,57)           116.6647         estimate D2E/DX2                !
 ! A100  A(15,58,16)            74.696          estimate D2E/DX2                !
 ! A101  A(15,58,17)            80.7567         estimate D2E/DX2                !
 ! A102  A(15,58,18)           136.5439         estimate D2E/DX2                !
 ! A103  A(15,58,19)            76.2127         estimate D2E/DX2                !
 ! A104  A(15,58,20)           105.5835         estimate D2E/DX2                !
 ! A105  A(15,58,21)           101.9503         estimate D2E/DX2                !
 ! A106  A(15,58,22)           105.9493         estimate D2E/DX2                !
 ! A107  A(15,58,23)           131.0838         estimate D2E/DX2                !
 ! A108  A(15,58,25)           122.2849         estimate D2E/DX2                !
 ! A109  A(15,58,27)            75.554          estimate D2E/DX2                !
 ! A110  A(16,58,17)           146.6017         estimate D2E/DX2                !
 ! A111  A(16,58,18)            89.0033         estimate D2E/DX2                !
 ! A112  A(16,58,19)            85.2377         estimate D2E/DX2                !
 ! A113  A(16,58,20)            83.9227         estimate D2E/DX2                !
 ! A114  A(16,58,22)            78.0929         estimate D2E/DX2                !
 ! A115  A(16,58,23)            78.3945         estimate D2E/DX2                !
 ! A116  A(16,58,25)           152.305          estimate D2E/DX2                !
 ! A117  A(16,58,27)            73.4709         estimate D2E/DX2                !
 ! A118  A(17,58,18)            93.6349         estimate D2E/DX2                !
 ! A119  A(17,58,19)           110.6677         estimate D2E/DX2                !
 ! A120  A(17,58,20)           124.9171         estimate D2E/DX2                !
 ! A121  A(17,58,22)            87.45           estimate D2E/DX2                !
 ! A122  A(17,58,23)           134.9483         estimate D2E/DX2                !
 ! A123  A(17,58,25)            61.057          estimate D2E/DX2                !
 ! A124  A(17,58,27)            78.7647         estimate D2E/DX2                !
 ! A125  A(18,58,19)           143.3503         estimate D2E/DX2                !
 ! A126  A(18,58,20)           112.4934         estimate D2E/DX2                !
 ! A127  A(18,58,21)            93.0674         estimate D2E/DX2                !
 ! A128  A(18,58,23)            81.9806         estimate D2E/DX2                !
 ! A129  A(18,58,25)            90.2685         estimate D2E/DX2                !
 ! A130  A(18,58,27)            61.1444         estimate D2E/DX2                !
 ! A131  A(19,58,21)            94.6956         estimate D2E/DX2                !
 ! A132  A(19,58,22)           161.776          estimate D2E/DX2                !
 ! A133  A(19,58,23)            61.3989         estimate D2E/DX2                !
 ! A134  A(19,58,25)            78.9572         estimate D2E/DX2                !
 ! A135  A(19,58,27)           148.2068         estimate D2E/DX2                !
 ! A136  A(20,58,21)            97.7849         estimate D2E/DX2                !
 ! A137  A(20,58,22)           137.7623         estimate D2E/DX2                !
 ! A138  A(20,58,25)            70.8383         estimate D2E/DX2                !
 ! A139  A(20,58,27)           156.3153         estimate D2E/DX2                !
 ! A140  A(21,58,22)           102.385          estimate D2E/DX2                !
 ! A141  A(21,58,23)           104.5917         estimate D2E/DX2                !
 ! A142  A(21,58,27)           105.1697         estimate D2E/DX2                !
 ! A143  A(22,58,23)           107.4278         estimate D2E/DX2                !
 ! A144  A(22,58,25)           113.122          estimate D2E/DX2                !
 ! A145  A(23,58,25)            74.0936         estimate D2E/DX2                !
 ! A146  A(23,58,27)           133.1621         estimate D2E/DX2                !
 ! A147  A(25,58,27)           129.2704         estimate D2E/DX2                !
 ! A148  A(9,60,61)            109.4712         estimate D2E/DX2                !
 ! A149  A(9,60,62)            109.4712         estimate D2E/DX2                !
 ! A150  A(9,60,63)            109.4712         estimate D2E/DX2                !
 ! A151  A(61,60,62)           109.4713         estimate D2E/DX2                !
 ! A152  A(61,60,63)           109.4712         estimate D2E/DX2                !
 ! A153  A(62,60,63)           109.4712         estimate D2E/DX2                !
 ! A154  A(45,63,60)           136.4911         estimate D2E/DX2                !
 ! A155  A(8,64,65)            109.4712         estimate D2E/DX2                !
 ! A156  A(8,64,66)            109.4712         estimate D2E/DX2                !
 ! A157  A(8,64,67)            109.4712         estimate D2E/DX2                !
 ! A158  A(65,64,66)           109.4713         estimate D2E/DX2                !
 ! A159  A(65,64,67)           109.4712         estimate D2E/DX2                !
 ! A160  A(66,64,67)           109.4712         estimate D2E/DX2                !
 ! A161  L(43,44,52,1,-1)      178.2973         estimate D2E/DX2                !
 ! A162  L(43,45,53,63,-1)     179.131          estimate D2E/DX2                !
 ! A163  L(16,58,21,15,-1)     176.6464         estimate D2E/DX2                !
 ! A164  L(43,44,52,1,-2)      182.2079         estimate D2E/DX2                !
 ! A165  L(43,45,53,63,-2)     181.6132         estimate D2E/DX2                !
 ! A166  L(16,58,21,15,-2)     179.2696         estimate D2E/DX2                !
 ! D1    D(6,1,2,3)             -2.3548         estimate D2E/DX2                !
 ! D2    D(6,1,2,10)           177.9059         estimate D2E/DX2                !
 ! D3    D(41,1,2,3)           179.089          estimate D2E/DX2                !
 ! D4    D(41,1,2,10)           -0.6503         estimate D2E/DX2                !
 ! D5    D(2,1,6,5)              2.4158         estimate D2E/DX2                !
 ! D6    D(2,1,6,14)          -177.3569         estimate D2E/DX2                !
 ! D7    D(41,1,6,5)          -179.0678         estimate D2E/DX2                !
 ! D8    D(41,1,6,14)            1.1595         estimate D2E/DX2                !
 ! D9    D(2,1,41,7)          -131.5873         estimate D2E/DX2                !
 ! D10   D(2,1,41,42)           20.0187         estimate D2E/DX2                !
 ! D11   D(2,1,41,59)          159.7499         estimate D2E/DX2                !
 ! D12   D(6,1,41,7)            49.8806         estimate D2E/DX2                !
 ! D13   D(6,1,41,42)         -158.5134         estimate D2E/DX2                !
 ! D14   D(6,1,41,59)          -18.7821         estimate D2E/DX2                !
 ! D15   D(1,2,3,4)              0.6144         estimate D2E/DX2                !
 ! D16   D(1,2,3,11)          -179.4485         estimate D2E/DX2                !
 ! D17   D(10,2,3,4)          -179.6486         estimate D2E/DX2                !
 ! D18   D(10,2,3,11)            0.2886         estimate D2E/DX2                !
 ! D19   D(2,3,4,5)              1.0685         estimate D2E/DX2                !
 ! D20   D(2,3,4,12)          -179.7827         estimate D2E/DX2                !
 ! D21   D(11,3,4,5)          -178.8684         estimate D2E/DX2                !
 ! D22   D(11,3,4,12)            0.2804         estimate D2E/DX2                !
 ! D23   D(3,4,5,6)             -1.0058         estimate D2E/DX2                !
 ! D24   D(3,4,5,13)           178.5963         estimate D2E/DX2                !
 ! D25   D(12,4,5,6)           179.8443         estimate D2E/DX2                !
 ! D26   D(12,4,5,13)           -0.5535         estimate D2E/DX2                !
 ! D27   D(4,5,6,1)             -0.7396         estimate D2E/DX2                !
 ! D28   D(4,5,6,14)           179.0323         estimate D2E/DX2                !
 ! D29   D(13,5,6,1)           179.6572         estimate D2E/DX2                !
 ! D30   D(13,5,6,14)           -0.5709         estimate D2E/DX2                !
 ! D31   D(9,7,8,16)           -35.7643         estimate D2E/DX2                !
 ! D32   D(9,7,8,64)           147.1489         estimate D2E/DX2                !
 ! D33   D(41,7,8,16)          161.2819         estimate D2E/DX2                !
 ! D34   D(41,7,8,64)          -15.8048         estimate D2E/DX2                !
 ! D35   D(59,7,8,16)           95.9313         estimate D2E/DX2                !
 ! D36   D(59,7,8,64)          -81.1555         estimate D2E/DX2                !
 ! D37   D(8,7,9,15)            52.6257         estimate D2E/DX2                !
 ! D38   D(8,7,9,60)          -127.0227         estimate D2E/DX2                !
 ! D39   D(41,7,9,15)         -145.3256         estimate D2E/DX2                !
 ! D40   D(41,7,9,60)           35.0259         estimate D2E/DX2                !
 ! D41   D(59,7,9,15)          -77.2005         estimate D2E/DX2                !
 ! D42   D(59,7,9,60)          103.1511         estimate D2E/DX2                !
 ! D43   D(8,7,41,1)           158.2995         estimate D2E/DX2                !
 ! D44   D(8,7,41,42)            6.4998         estimate D2E/DX2                !
 ! D45   D(9,7,41,1)            -2.4654         estimate D2E/DX2                !
 ! D46   D(9,7,41,42)         -154.265          estimate D2E/DX2                !
 ! D47   D(7,8,16,58)          -10.1726         estimate D2E/DX2                !
 ! D48   D(64,8,16,58)         166.6502         estimate D2E/DX2                !
 ! D49   D(7,8,64,65)          -68.6094         estimate D2E/DX2                !
 ! D50   D(7,8,64,66)           51.3906         estimate D2E/DX2                !
 ! D51   D(7,8,64,67)          171.3906         estimate D2E/DX2                !
 ! D52   D(16,8,64,65)         114.3733         estimate D2E/DX2                !
 ! D53   D(16,8,64,66)        -125.6267         estimate D2E/DX2                !
 ! D54   D(16,8,64,67)          -5.6267         estimate D2E/DX2                !
 ! D55   D(7,9,15,58)          -22.5786         estimate D2E/DX2                !
 ! D56   D(60,9,15,58)         157.0414         estimate D2E/DX2                !
 ! D57   D(7,9,60,61)          133.5558         estimate D2E/DX2                !
 ! D58   D(7,9,60,62)         -106.4442         estimate D2E/DX2                !
 ! D59   D(7,9,60,63)           13.5558         estimate D2E/DX2                !
 ! D60   D(15,9,60,61)         -46.086          estimate D2E/DX2                !
 ! D61   D(15,9,60,62)          73.914          estimate D2E/DX2                !
 ! D62   D(15,9,60,63)        -166.086          estimate D2E/DX2                !
 ! D63   D(9,15,58,16)         -12.2051         estimate D2E/DX2                !
 ! D64   D(9,15,58,17)        -169.3481         estimate D2E/DX2                !
 ! D65   D(9,15,58,18)         -83.8428         estimate D2E/DX2                !
 ! D66   D(9,15,58,19)          76.5642         estimate D2E/DX2                !
 ! D67   D(9,15,58,20)          66.8265         estimate D2E/DX2                !
 ! D68   D(9,15,58,21)         168.5253         estimate D2E/DX2                !
 ! D69   D(9,15,58,22)         -84.7067         estimate D2E/DX2                !
 ! D70   D(9,15,58,23)          46.7784         estimate D2E/DX2                !
 ! D71   D(9,15,58,25)         143.7137         estimate D2E/DX2                !
 ! D72   D(9,15,58,27)         -88.6667         estimate D2E/DX2                !
 ! D73   D(8,16,58,15)          29.938          estimate D2E/DX2                !
 ! D74   D(8,16,58,17)          74.0843         estimate D2E/DX2                !
 ! D75   D(8,16,58,18)         169.1791         estimate D2E/DX2                !
 ! D76   D(8,16,58,19)         -47.051          estimate D2E/DX2                !
 ! D77   D(8,16,58,20)         -78.0747         estimate D2E/DX2                !
 ! D78   D(8,16,58,22)         140.3553         estimate D2E/DX2                !
 ! D79   D(8,16,58,23)        -108.8033         estimate D2E/DX2                !
 ! D80   D(8,16,58,25)        -102.1424         estimate D2E/DX2                !
 ! D81   D(8,16,58,27)         109.068          estimate D2E/DX2                !
 ! D82   D(19,20,31,38)        -66.0364         estimate D2E/DX2                !
 ! D83   D(19,20,31,39)        174.3155         estimate D2E/DX2                !
 ! D84   D(19,20,31,40)         54.6019         estimate D2E/DX2                !
 ! D85   D(23,20,31,38)         44.0586         estimate D2E/DX2                !
 ! D86   D(23,20,31,39)        -75.5895         estimate D2E/DX2                !
 ! D87   D(23,20,31,40)        164.6969         estimate D2E/DX2                !
 ! D88   D(24,20,31,38)        169.7581         estimate D2E/DX2                !
 ! D89   D(24,20,31,39)         50.11           estimate D2E/DX2                !
 ! D90   D(24,20,31,40)        -69.6035         estimate D2E/DX2                !
 ! D91   D(58,20,31,38)        -12.3311         estimate D2E/DX2                !
 ! D92   D(58,20,31,39)       -131.9792         estimate D2E/DX2                !
 ! D93   D(58,20,31,40)        108.3072         estimate D2E/DX2                !
 ! D94   D(24,20,58,15)        113.0894         estimate D2E/DX2                !
 ! D95   D(24,20,58,16)       -174.6841         estimate D2E/DX2                !
 ! D96   D(24,20,58,17)         23.5869         estimate D2E/DX2                !
 ! D97   D(24,20,58,18)        -88.2973         estimate D2E/DX2                !
 ! D98   D(24,20,58,21)          8.3102         estimate D2E/DX2                !
 ! D99   D(24,20,58,22)       -109.8938         estimate D2E/DX2                !
 ! D100  D(24,20,58,25)         -6.2594         estimate D2E/DX2                !
 ! D101  D(24,20,58,27)       -157.422          estimate D2E/DX2                !
 ! D102  D(31,20,58,15)        -64.1611         estimate D2E/DX2                !
 ! D103  D(31,20,58,16)          8.0654         estimate D2E/DX2                !
 ! D104  D(31,20,58,17)       -153.6636         estimate D2E/DX2                !
 ! D105  D(31,20,58,18)         94.4522         estimate D2E/DX2                !
 ! D106  D(31,20,58,21)       -168.9403         estimate D2E/DX2                !
 ! D107  D(31,20,58,22)         72.8557         estimate D2E/DX2                !
 ! D108  D(31,20,58,25)        176.49           estimate D2E/DX2                !
 ! D109  D(31,20,58,27)         25.3275         estimate D2E/DX2                !
 ! D110  D(17,21,30,35)         65.3711         estimate D2E/DX2                !
 ! D111  D(17,21,30,36)        -54.9286         estimate D2E/DX2                !
 ! D112  D(17,21,30,37)       -174.6534         estimate D2E/DX2                !
 ! D113  D(25,21,30,35)        -43.911          estimate D2E/DX2                !
 ! D114  D(25,21,30,36)       -164.2107         estimate D2E/DX2                !
 ! D115  D(25,21,30,37)         76.0645         estimate D2E/DX2                !
 ! D116  D(26,21,30,35)       -169.8173         estimate D2E/DX2                !
 ! D117  D(26,21,30,36)         69.8831         estimate D2E/DX2                !
 ! D118  D(26,21,30,37)        -49.8417         estimate D2E/DX2                !
 ! D119  D(58,21,30,35)         11.831          estimate D2E/DX2                !
 ! D120  D(58,21,30,36)       -108.4687         estimate D2E/DX2                !
 ! D121  D(58,21,30,37)        131.8065         estimate D2E/DX2                !
 ! D122  D(26,21,58,15)        -42.5695         estimate D2E/DX2                !
 ! D123  D(26,21,58,18)        178.4586         estimate D2E/DX2                !
 ! D124  D(26,21,58,19)         34.3081         estimate D2E/DX2                !
 ! D125  D(26,21,58,20)         65.2539         estimate D2E/DX2                !
 ! D126  D(26,21,58,22)       -152.0838         estimate D2E/DX2                !
 ! D127  D(26,21,58,23)         95.9522         estimate D2E/DX2                !
 ! D128  D(26,21,58,27)       -120.6336         estimate D2E/DX2                !
 ! D129  D(30,21,58,15)        135.0625         estimate D2E/DX2                !
 ! D130  D(30,21,58,18)         -3.9094         estimate D2E/DX2                !
 ! D131  D(30,21,58,19)       -148.06           estimate D2E/DX2                !
 ! D132  D(30,21,58,20)       -117.1141         estimate D2E/DX2                !
 ! D133  D(30,21,58,22)         25.5482         estimate D2E/DX2                !
 ! D134  D(30,21,58,23)        -86.4158         estimate D2E/DX2                !
 ! D135  D(30,21,58,27)         56.9984         estimate D2E/DX2                !
 ! D136  D(18,22,29,32)       -168.1446         estimate D2E/DX2                !
 ! D137  D(18,22,29,33)         72.2836         estimate D2E/DX2                !
 ! D138  D(18,22,29,34)        -48.5336         estimate D2E/DX2                !
 ! D139  D(27,22,29,32)         81.3333         estimate D2E/DX2                !
 ! D140  D(27,22,29,33)        -38.2385         estimate D2E/DX2                !
 ! D141  D(27,22,29,34)       -159.0557         estimate D2E/DX2                !
 ! D142  D(28,22,29,32)        -44.318          estimate D2E/DX2                !
 ! D143  D(28,22,29,33)       -163.8898         estimate D2E/DX2                !
 ! D144  D(28,22,29,34)         75.293          estimate D2E/DX2                !
 ! D145  D(58,22,29,32)        138.8318         estimate D2E/DX2                !
 ! D146  D(58,22,29,33)         19.26           estimate D2E/DX2                !
 ! D147  D(58,22,29,34)       -101.5572         estimate D2E/DX2                !
 ! D148  D(28,22,58,15)         88.8141         estimate D2E/DX2                !
 ! D149  D(28,22,58,16)         18.7401         estimate D2E/DX2                !
 ! D150  D(28,22,58,17)        168.4473         estimate D2E/DX2                !
 ! D151  D(28,22,58,19)         -5.5126         estimate D2E/DX2                !
 ! D152  D(28,22,58,20)        -48.1063         estimate D2E/DX2                !
 ! D153  D(28,22,58,21)       -164.7321         estimate D2E/DX2                !
 ! D154  D(28,22,58,23)        -54.8995         estimate D2E/DX2                !
 ! D155  D(28,22,58,25)       -134.6284         estimate D2E/DX2                !
 ! D156  D(29,22,58,15)        -95.4952         estimate D2E/DX2                !
 ! D157  D(29,22,58,16)       -165.5692         estimate D2E/DX2                !
 ! D158  D(29,22,58,17)        -15.862          estimate D2E/DX2                !
 ! D159  D(29,22,58,19)        170.1782         estimate D2E/DX2                !
 ! D160  D(29,22,58,20)        127.5845         estimate D2E/DX2                !
 ! D161  D(29,22,58,21)         10.9586         estimate D2E/DX2                !
 ! D162  D(29,22,58,23)        120.7912         estimate D2E/DX2                !
 ! D163  D(29,22,58,25)         41.0623         estimate D2E/DX2                !
 ! D164  D(44,43,45,63)        -97.1867         estimate D2E/DX2                !
 ! D165  D(54,43,45,63)         81.9799         estimate D2E/DX2                !
 ! D166  D(44,43,54,55)          5.8408         estimate D2E/DX2                !
 ! D167  D(44,43,54,56)       -173.3928         estimate D2E/DX2                !
 ! D168  D(45,43,54,55)       -173.3516         estimate D2E/DX2                !
 ! D169  D(45,43,54,56)          7.4148         estimate D2E/DX2                !
 ! D170  D(43,45,63,60)       -102.7349         estimate D2E/DX2                !
 ! D171  D(53,45,63,60)         75.6519         estimate D2E/DX2                !
 ! D172  D(49,46,48,47)       -178.9541         estimate D2E/DX2                !
 ! D173  D(49,46,48,51)         -0.9263         estimate D2E/DX2                !
 ! D174  D(56,46,48,47)          1.509          estimate D2E/DX2                !
 ! D175  D(56,46,48,51)        179.5368         estimate D2E/DX2                !
 ! D176  D(48,46,56,54)          0.1424         estimate D2E/DX2                !
 ! D177  D(48,46,56,57)        178.1812         estimate D2E/DX2                !
 ! D178  D(49,46,56,54)       -179.4112         estimate D2E/DX2                !
 ! D179  D(49,46,56,57)         -1.3724         estimate D2E/DX2                !
 ! D180  D(50,47,48,46)        177.8399         estimate D2E/DX2                !
 ! D181  D(50,47,48,51)         -0.2273         estimate D2E/DX2                !
 ! D182  D(55,47,48,46)         -1.2592         estimate D2E/DX2                !
 ! D183  D(55,47,48,51)       -179.3264         estimate D2E/DX2                !
 ! D184  D(48,47,55,54)         -0.7561         estimate D2E/DX2                !
 ! D185  D(50,47,55,54)       -179.9088         estimate D2E/DX2                !
 ! D186  D(43,54,55,47)       -176.6621         estimate D2E/DX2                !
 ! D187  D(56,54,55,47)          2.5715         estimate D2E/DX2                !
 ! D188  D(43,54,56,46)        176.8927         estimate D2E/DX2                !
 ! D189  D(43,54,56,57)         -1.2748         estimate D2E/DX2                !
 ! D190  D(55,54,56,46)         -2.2896         estimate D2E/DX2                !
 ! D191  D(55,54,56,57)        179.5429         estimate D2E/DX2                !
 ! D192  D(9,60,63,45)         133.6332         estimate D2E/DX2                !
 ! D193  D(61,60,63,45)         13.6332         estimate D2E/DX2                !
 ! D194  D(62,60,63,45)       -106.3668         estimate D2E/DX2                !
 --------------------------------------------------------------------------------
 Trust Radius=3.00D-01 FncErr=1.00D-07 GrdErr=1.00D-06 EigMax=2.50D+02 EigMin=1.00D-04
 Number of steps in this run=    402 maximum allowed number of steps=    402.
 GradGradGradGradGradGradGradGradGradGradGradGradGradGradGradGradGradGrad

 Leave Link  103 at Fri May  2 16:23:20 2025, MaxMem= 82678120448 cpu:               1.9 elap:               0.1
 (Enter /sysapps/ubuntu-applications/gaussian-new/avx/g16/l202.exe)
 Stoichiometry    C22H16F9LuN4O12S3
 Framework group  C1[X(C22H16F9LuN4O12S3)]
 Deg. of freedom   195
 Full point group                 C1      NOp   1
 Largest Abelian subgroup         C1      NOp   1
 Largest concise Abelian subgroup C1      NOp   1
                         Standard orientation:                         
 ---------------------------------------------------------------------
 Center     Atomic      Atomic             Coordinates (Angstroms)
 Number     Number       Type             X           Y           Z
 ---------------------------------------------------------------------
      1          6           0        4.718700   -1.159799    0.947038
      2          6           0        6.032752   -0.745480    0.703248
      3          6           0        6.953090   -0.683898    1.752033
      4          6           0        6.565895   -1.048057    3.042332
      5          6           0        5.261876   -1.496166    3.281010
      6          6           0        4.341939   -1.559866    2.236206
      7          6           0        2.387368   -0.615780   -0.163828
      8          6           0        1.684007   -0.263072   -1.457418
      9          6           0        1.753445    0.048217    1.042256
     10          1           0        6.330613   -0.467265   -0.310847
     11          1           0        7.975137   -0.351260    1.558367
     12          1           0        7.283805   -0.996932    3.864070
     13          1           0        4.963989   -1.803287    4.285985
     14          1           0        3.326842   -1.924972    2.418415
     15          8           0        0.548960   -0.049595    1.271216
     16          8           0        0.461598   -0.109402   -1.505379
     17          8           0       -2.352079    0.155428    1.875518
     18          8           0       -2.654207    0.661461   -1.416099
     19          8           0       -0.266072   -2.565870    0.266353
     20         16           0       -0.927253   -3.267964   -0.885647
     21         16           0       -3.353260   -0.960965    1.954010
     22         16           0       -2.062161    2.028048   -1.225353
     23          8           0       -1.612594   -2.183057   -1.651906
     24          8           0       -1.659952   -4.472290   -0.600023
     25          8           0       -3.082661   -1.784903    0.736518
     26          8           0       -3.500306   -1.633780    3.215740
     27          8           0       -1.021854    1.858206   -0.170509
     28          8           0       -1.711732    2.755111   -2.420559
     29          6           0       -3.396689    3.016124   -0.419772
     30          6           0       -4.973298   -0.150336    1.615867
     31          6           0        0.475057   -3.809611   -1.954386
     32          9           0       -3.045470    4.288578   -0.452826
     33          9           0       -3.545612    2.632560    0.832418
     34          9           0       -4.522113    2.844584   -1.081234
     35          9           0       -4.993790    0.305846    0.376967
     36          9           0       -5.137861    0.846530    2.462763
     37          9           0       -5.932297   -1.039050    1.777868
     38          9           0        1.100187   -2.759423   -2.465228
     39          9           0       -0.004883   -4.546645   -2.936369
     40          9           0        1.315208   -4.518710   -1.231512
     41          6           0        3.755786   -1.194855   -0.189988
     42          1           0        4.213788   -1.224133   -1.185516
     43          6           0        4.222643    2.453302   -0.270638
     44          6           0        4.802685    1.788799   -1.369697
     45          6           0        4.844674    2.486336    0.992258
     46          6           0        1.223738    4.506231    0.287016
     47          6           0        1.256084    3.514470   -1.865222
     48          6           0        0.614819    4.356965   -0.950050
     49          1           0        0.796648    5.126547    1.075877
     50          1           0        0.827382    3.313006   -2.849693
     51          1           0       -0.330382    4.836809   -1.201595
     52          7           0        5.324284    1.220391   -2.245611
     53          7           0        5.327558    2.521117    2.054854
     54          7           0        2.981991    3.083954   -0.439459
     55          7           0        2.396953    2.891452   -1.619059
     56          6           0        2.422978    3.852141    0.528786
     57          1           0        2.977443    3.941637    1.463503
     58         71           0       -1.261368   -0.512302   -0.039415
     59          8           0        2.599581   -2.005006   -0.047608
     60          6           0        2.632989    0.775361    1.855635
     61          1           0        2.201362    1.726899    2.086232
     62          1           0        2.809912    0.234895    2.761999
     63          1           0        3.559244    0.919480    1.339708
     64          6           0        2.519722   -0.193391   -2.580204
     65          1           0        3.171070    0.650516   -2.488189
     66          1           0        3.102597   -1.088202   -2.647060
     67          1           0        1.923585   -0.089284   -3.462634
 ---------------------------------------------------------------------
 Rotational constants (GHZ):           0.0724791           0.0433196           0.0351907
 Leave Link  202 at Fri May  2 16:23:20 2025, MaxMem= 82678120448 cpu:               3.6 elap:               0.3
 (Enter /sysapps/ubuntu-applications/gaussian-new/avx/g16/l301.exe)
 General basis read from cards:  (5D, 7F)
 Centers:      10     11     12     13     14     42     49     50     51     57
 Centers:      61     62     63     65     66     67
 S 3 1.00
     Exponent=  1.3010701000D+01 Coefficients=  1.9682158000D-02
     Exponent=  1.9622572000D+00 Coefficients=  1.3796524000D-01
     Exponent=  4.4453796000D-01 Coefficients=  4.7831935000D-01
 S 1 1.00
     Exponent=  1.2194962000D-01 Coefficients=  1.0000000000D+00
 P 1 1.00
     Exponent=  8.0000000000D-01 Coefficients=  1.0000000000D+00
 ****
 Centers:       1      2      3      4      5      6      7      8      9     29
 Centers:      30     31     41     43     44     45     46     47     48     56
 Centers:      60     64
 S 5 1.00
     Exponent=  1.2384016938D+03 Coefficients=  5.4568832082D-03
     Exponent=  1.8629004992D+02 Coefficients=  4.0638409211D-02
     Exponent=  4.2251176346D+01 Coefficients=  1.8025593888D-01
     Exponent=  1.1676557932D+01 Coefficients=  4.6315121755D-01
     Exponent=  3.5930506482D+00 Coefficients=  4.4087173314D-01
 S 1 1.00
     Exponent=  4.0245147363D-01 Coefficients=  1.0000000000D+00
 S 1 1.00
     Exponent=  1.3090182668D-01 Coefficients=  1.0000000000D+00
 P 3 1.00
     Exponent=  9.4680970621D+00 Coefficients=  3.8387871728D-02
     Exponent=  2.0103545142D+00 Coefficients=  2.1117025112D-01
     Exponent=  5.4771004707D-01 Coefficients=  5.1328172114D-01
 P 1 1.00
     Exponent=  1.5268613795D-01 Coefficients=  1.0000000000D+00
 D 1 1.00
     Exponent=  8.0000000000D-01 Coefficients=  1.0000000000D+00
 ****
 Centers:      52     53     54     55
 S 5 1.00
     Exponent=  1.7128415853D+03 Coefficients= -5.3934125305D-03
     Exponent=  2.5764812677D+02 Coefficients= -4.0221581118D-02
     Exponent=  5.8458245853D+01 Coefficients= -1.7931144990D-01
     Exponent=  1.6198367905D+01 Coefficients= -4.6376317823D-01
     Exponent=  5.0052600809D+00 Coefficients= -4.4171422662D-01
 S 1 1.00
     Exponent=  5.8731856571D-01 Coefficients=  1.0000000000D+00
 S 1 1.00
     Exponent=  1.8764592253D-01 Coefficients=  1.0000000000D+00
 P 3 1.00
     Exponent=  1.3571470233D+01 Coefficients= -4.0072398852D-02
     Exponent=  2.9257372874D+00 Coefficients= -2.1807045028D-01
     Exponent=  7.9927750754D-01 Coefficients= -5.1294466049D-01
 P 1 1.00
     Exponent=  2.1954348034D-01 Coefficients=  1.0000000000D+00
 D 1 1.00
     Exponent=  1.0000000000D+00 Coefficients=  1.0000000000D+00
 ****
 Centers:      15     16     17     18     19     23     24     25     26     27
 Centers:      28     59
 S 5 1.00
     Exponent=  2.2661767785D+03 Coefficients= -5.3431809926D-03
     Exponent=  3.4087010191D+02 Coefficients= -3.9890039230D-02
     Exponent=  7.7363135167D+01 Coefficients= -1.7853911985D-01
     Exponent=  2.1479644940D+01 Coefficients= -4.6427684959D-01
     Exponent=  6.6589433124D+00 Coefficients= -4.4309745172D-01
 S 1 1.00
     Exponent=  8.0975975668D-01 Coefficients=  1.0000000000D+00
 S 1 1.00
     Exponent=  2.5530772234D-01 Coefficients=  1.0000000000D+00
 P 3 1.00
     Exponent=  1.7721504317D+01 Coefficients=  4.3394573193D-02
     Exponent=  3.8635505440D+00 Coefficients=  2.3094120765D-01
     Exponent=  1.0480920883D+00 Coefficients=  5.1375311064D-01
 P 1 1.00
     Exponent=  2.7641544411D-01 Coefficients=  1.0000000000D+00
 D 1 1.00
     Exponent=  1.2000000000D+00 Coefficients=  1.0000000000D+00
 ****
 Centers:      32     33     34     35     36     37     38     39     40
 S 5 1.00
     Exponent=  2.8948325990D+03 Coefficients= -5.3408255515D-03
     Exponent=  4.3541939120D+02 Coefficients= -3.9904258866D-02
     Exponent=  9.8843328866D+01 Coefficients= -1.7912768038D-01
     Exponent=  2.7485198001D+01 Coefficients= -4.6758090825D-01
     Exponent=  8.5405498171D+00 Coefficients= -4.4653131020D-01
 S 1 1.00
     Exponent=  1.0654578038D+00 Coefficients=  1.0000000000D+00
 S 1 1.00
     Exponent=  3.3247346748D-01 Coefficients=  1.0000000000D+00
 P 3 1.00
     Exponent=  2.2696633924D+01 Coefficients= -4.5212874436D-02
     Exponent=  4.9872339257D+00 Coefficients= -2.3754317067D-01
     Exponent=  1.3491613954D+00 Coefficients= -5.1287353587D-01
 P 1 1.00
     Exponent=  3.4829881977D-01 Coefficients=  1.0000000000D+00
 D 1 1.00
     Exponent=  1.4000000000D+00 Coefficients=  1.0000000000D+00
 ****
 Centers:      20     21     22
 S 5 1.00
     Exponent=  9.1849303010D+03 Coefficients= -2.2294387756D-03
     Exponent=  1.3815105503D+03 Coefficients= -1.6683029937D-02
     Exponent=  3.1387147580D+02 Coefficients= -7.5262436116D-02
     Exponent=  8.8053870623D+01 Coefficients= -1.9376827038D-01
     Exponent=  2.7039914905D+01 Coefficients= -1.7718020803D-01
 S 3 1.00
     Exponent=  4.5648731303D+01 Coefficients= -1.0736062573D-01
     Exponent=  4.9664522326D+00 Coefficients=  6.5066293018D-01
     Exponent=  2.0116242047D+00 Coefficients=  5.9712155354D-01
 S 1 1.00
     Exponent=  3.5661077013D-01 Coefficients=  1.0000000000D+00
 S 1 1.00
     Exponent=  1.3507221477D-01 Coefficients=  1.0000000000D+00
 P 5 1.00
     Exponent=  2.6198233439D+02 Coefficients= -9.2729929822D-03
     Exponent=  6.1306894736D+01 Coefficients= -6.6547669241D-02
     Exponent=  1.9103729887D+01 Coefficients= -2.4828595903D-01
     Exponent=  6.6567720378D+00 Coefficients= -4.8703847402D-01
     Exponent=  2.3959635161D+00 Coefficients= -3.9337850312D-01
 P 1 1.00
     Exponent=  6.1776161679D-01 Coefficients=  1.0000000000D+00
 P 1 1.00
     Exponent=  1.6993376871D-01 Coefficients=  1.0000000000D+00
 D 1 1.00
     Exponent=  5.5000000000D-01 Coefficients=  1.0000000000D+00
 ****
 Centers:      58
 S 5 1.00
     Exponent=  9.5169767000D+04 Coefficients=  2.2000000000D-05
     Exponent=  1.5488403000D+04 Coefficients=  1.4500000000D-04
     Exponent=  3.7762335000D+03 Coefficients=  6.5100000000D-04
     Exponent=  1.0790501000D+03 Coefficients=  2.0380000000D-03
     Exponent=  2.6895380000D+02 Coefficients=  5.1270000000D-03
 S 1 1.00
     Exponent=  6.3467900000D+01 Coefficients=  1.0000000000D+00
 S 1 1.00
     Exponent=  4.5133200000D+01 Coefficients=  1.0000000000D+00
 S 1 1.00
     Exponent=  2.1456800000D+01 Coefficients=  1.0000000000D+00
 S 1 1.00
     Exponent=  5.3483000000D+00 Coefficients=  1.0000000000D+00
 S 1 1.00
     Exponent=  2.6778000000D+00 Coefficients=  1.0000000000D+00
 S 1 1.00
     Exponent=  1.0287000000D+00 Coefficients=  1.0000000000D+00
 S 1 1.00
     Exponent=  4.4080000000D-01 Coefficients=  1.0000000000D+00
 S 1 1.00
     Exponent=  7.9100000000D-02 Coefficients=  1.0000000000D+00
 S 1 1.00
     Exponent=  3.1300000000D-02 Coefficients=  1.0000000000D+00
 P 3 1.00
     Exponent=  1.2333733920D+01 Coefficients= -1.5313031066D-01
     Exponent=  1.1080331415D+01 Coefficients= -2.0300664852D-01
     Exponent=  2.0341747228D+00 Coefficients= -1.9458361263D-01
 P 6 1.00
     Exponent=  1.5005317313D+03 Coefficients= -1.0192569555D-03
     Exponent=  3.8239748937D+02 Coefficients= -5.9476212135D-03
     Exponent=  1.3299969628D+02 Coefficients= -1.6265160929D-02
     Exponent=  4.6110032419D+01 Coefficients= -3.5623845839D-02
     Exponent=  1.5583529011D+01 Coefficients=  2.3709171074D-01
     Exponent=  5.7856677022D+00 Coefficients= -3.0670977844D-01
 P 1 1.00
     Exponent=  3.7823361008D+00 Coefficients=  1.0000000000D+00
 P 1 1.00
     Exponent=  1.3682592248D+00 Coefficients=  1.0000000000D+00
 P 1 1.00
     Exponent=  5.7288205601D-01 Coefficients=  1.0000000000D+00
 P 1 1.00
     Exponent=  2.2793165135D-01 Coefficients=  1.0000000000D+00
 P 1 1.00
     Exponent=  8.1403917986D-02 Coefficients=  1.0000000000D+00
 P 1 1.00
     Exponent=  2.9091071778D-02 Coefficients=  1.0000000000D+00
 D 6 1.00
     Exponent=  4.8452750000D+02 Coefficients=  2.2860000000D-03
     Exponent=  1.4666550000D+02 Coefficients=  1.8629000000D-02
     Exponent=  5.6377900000D+01 Coefficients=  7.4088000000D-02
     Exponent=  2.3671100000D+01 Coefficients=  1.6155400000D-01
     Exponent=  9.4401000000D+00 Coefficients=  3.0809100000D-01
     Exponent=  4.3712000000D+00 Coefficients=  4.4833400000D-01
 D 1 1.00
     Exponent=  1.9580000000D+00 Coefficients=  1.0000000000D+00
 D 1 1.00
     Exponent=  7.2720000000D-01 Coefficients=  1.0000000000D+00
 D 1 1.00
     Exponent=  2.4600000000D-01 Coefficients=  1.0000000000D+00
 D 1 1.00
     Exponent=  7.4400000000D-02 Coefficients=  1.0000000000D+00
 F 5 1.00
     Exponent=  1.7515590000D+02 Coefficients=  4.1020000000D-03
     Exponent=  6.2890900000D+01 Coefficients=  3.9086000000D-02
     Exponent=  2.8362400000D+01 Coefficients=  1.4704400000D-01
     Exponent=  1.3247800000D+01 Coefficients=  2.7109200000D-01
     Exponent=  6.1440000000D+00 Coefficients=  3.4566500000D-01
 F 1 1.00
     Exponent=  2.7623000000D+00 Coefficients=  1.0000000000D+00
 F 1 1.00
     Exponent=  1.1574000000D+00 Coefficients=  1.0000000000D+00
 F 1 1.00
     Exponent=  4.2440000000D-01 Coefficients=  1.0000000000D+00
 G 1 1.00
     Exponent=  7.0090000000D-01 Coefficients=  1.0000000000D+00
 ****
 ======================================================================================================
                                       Pseudopotential Parameters
 ======================================================================================================
  Center     Atomic      Valence      Angular      Power
  Number     Number     Electrons     Momentum     of R      Exponent        Coefficient   SO-Coeffient
 ======================================================================================================
    1          6
                                   No pseudopotential on this center.
    2          6
                                   No pseudopotential on this center.
    3          6
                                   No pseudopotential on this center.
    4          6
                                   No pseudopotential on this center.
    5          6
                                   No pseudopotential on this center.
    6          6
                                   No pseudopotential on this center.
    7          6
                                   No pseudopotential on this center.
    8          6
                                   No pseudopotential on this center.
    9          6
                                   No pseudopotential on this center.
   10          1
                                   No pseudopotential on this center.
   11          1
                                   No pseudopotential on this center.
   12          1
                                   No pseudopotential on this center.
   13          1
                                   No pseudopotential on this center.
   14          1
                                   No pseudopotential on this center.
   15          8
                                   No pseudopotential on this center.
   16          8
                                   No pseudopotential on this center.
   17          8
                                   No pseudopotential on this center.
   18          8
                                   No pseudopotential on this center.
   19          8
                                   No pseudopotential on this center.
   20         16
                                   No pseudopotential on this center.
   21         16
                                   No pseudopotential on this center.
   22         16
                                   No pseudopotential on this center.
   23          8
                                   No pseudopotential on this center.
   24          8
                                   No pseudopotential on this center.
   25          8
                                   No pseudopotential on this center.
   26          8
                                   No pseudopotential on this center.
   27          8
                                   No pseudopotential on this center.
   28          8
                                   No pseudopotential on this center.
   29          6
                                   No pseudopotential on this center.
   30          6
                                   No pseudopotential on this center.
   31          6
                                   No pseudopotential on this center.
   32          9
                                   No pseudopotential on this center.
   33          9
                                   No pseudopotential on this center.
   34          9
                                   No pseudopotential on this center.
   35          9
                                   No pseudopotential on this center.
   36          9
                                   No pseudopotential on this center.
   37          9
                                   No pseudopotential on this center.
   38          9
                                   No pseudopotential on this center.
   39          9
                                   No pseudopotential on this center.
   40          9
                                   No pseudopotential on this center.
   41          6
                                   No pseudopotential on this center.
   42          1
                                   No pseudopotential on this center.
   43          6
                                   No pseudopotential on this center.
   44          6
                                   No pseudopotential on this center.
   45          6
                                   No pseudopotential on this center.
   46          6
                                   No pseudopotential on this center.
   47          6
                                   No pseudopotential on this center.
   48          6
                                   No pseudopotential on this center.
   49          1
                                   No pseudopotential on this center.
   50          1
                                   No pseudopotential on this center.
   51          1
                                   No pseudopotential on this center.
   52          7
                                   No pseudopotential on this center.
   53          7
                                   No pseudopotential on this center.
   54          7
                                   No pseudopotential on this center.
   55          7
                                   No pseudopotential on this center.
   56          6
                                   No pseudopotential on this center.
   57          1
                                   No pseudopotential on this center.
   58         71           43
                                      H and up 
                                                     2        1.0000000        0.00000000    0.00000000
                                      S - H
                                                     2       35.1620970      989.99558400    0.00000000
                                      P - H
                                                     2       19.4644020      278.86565200    0.00000000
                                      D - H
                                                     2       10.0068650       71.00917800    0.00000000
                                      F - H
                                                     2       23.5179320      -47.40589000    0.00000000
                                      G - H
                                                     2       29.4122380      -35.55714600    0.00000000
   59          8
                                   No pseudopotential on this center.
   60          6
                                   No pseudopotential on this center.
   61          1
                                   No pseudopotential on this center.
   62          1
                                   No pseudopotential on this center.
   63          1
                                   No pseudopotential on this center.
   64          6
                                   No pseudopotential on this center.
   65          1
                                   No pseudopotential on this center.
   66          1
                                   No pseudopotential on this center.
   67          1
                                   No pseudopotential on this center.
 ======================================================================================================
 Ernie: Thresh=  0.10000D-02 Tol=  0.10000D-05 Strict=F.
 There are   961 symmetry adapted cartesian basis functions of A   symmetry.
 There are   888 symmetry adapted basis functions of A   symmetry.
   888 basis functions,  1612 primitive gaussians,   961 cartesian basis functions
   222 alpha electrons      222 beta electrons
       nuclear repulsion energy     11155.4762071518 Hartrees.
 IExCor= 7252 DFT=T Ex+Corr=MN15 ExCW=0 ScaHFX=  0.440000
 ScaDFX=  1.000000  1.000000  1.000000  1.000000 ScalE2=  1.000000  1.000000
 IRadAn=      5 IRanWt=     -1 IRanGd=            0 ICorTp=0 IEmpDi=  4
 NAtoms=   67 NActive=   67 NUniq=   67 SFac= 1.00D+00 NAtFMM=   60 NAOKFM=T Big=T
 Integral buffers will be    131072 words long.
 Raffenetti 2 integral format.
 Two-electron integral symmetry is turned on.
 ------------------------------------------------------------------------------
 Polarizable Continuum Model (PCM)
 =================================
 Model                : PCM.
 Atomic radii         : SMD-Coulomb.
 Polarization charges : Total charges.
 Charge compensation  : None.
 Solution method      : On-the-fly selection.
 Cavity type          : VdW (van der Waals Surface) (Alpha=1.000).
 Cavity algorithm     : GePol (No added spheres)
                        Default sphere list used, NSphG=   67.
                        Lebedev-Laikov grids with approx.  5.0 points / Ang**2.
                        Smoothing algorithm: York/Karplus (Gamma=1.0000).
                        Polarization charges: spherical gaussians, with
                                              point-specific exponents (IZeta= 3).
                        Self-potential: point-specific (ISelfS= 7).
                        Self-field    : sphere-specific E.n sum rule (ISelfD= 2).
 1st derivatives      : Analytical E(r).r(x)/FMM algorithm (CHGder, D1EAlg=3).
                        Cavity 1st derivative terms included.
 Solvent              : DiChloroEthane, Eps=  10.125000 Eps(inf)=   2.087447
 ------------------------------------------------------------------------------
 GePol: Number of generator spheres                  =      67
 GePol: Total number of spheres                      =      67
 GePol: Number of exposed spheres                    =      66 ( 98.51%)
 GePol: Number of points                             =    4736
 GePol: Average weight of points                     =       0.13
 GePol: Minimum weight of points                     =   0.45D-09
 GePol: Maximum weight of points                     =    0.21501
 GePol: Number of points with low weight             =     324
 GePol: Fraction of low-weight points (<1% of avg)   =       6.84%
 GePol: Cavity surface area                          =    595.540 Ang**2
 GePol: Cavity volume                                =    744.100 Ang**3
 ------------------------------------------------------------------------------
 Atomic radii for non-electrostatic terms: SMD-CDS.
 ------------------------------------------------------------------------------
 PCM non-electrostatic energy =         0.0028355750 Hartrees.
 Nuclear repulsion after PCM non-electrostatic terms =    11155.4790427269 Hartrees.
 Leave Link  301 at Fri May  2 16:23:21 2025, MaxMem= 82678120448 cpu:               6.9 elap:               0.4
 (Enter /sysapps/ubuntu-applications/gaussian-new/avx/g16/l302.exe)
 NPDir=0 NMtPBC=     1 NCelOv=     1 NCel=       1 NClECP=     1 NCelD=      1
         NCelK=      1 NCelE2=     1 NClLst=     1 CellRange=     0.0.
 One-electron integrals computed using PRISM.
 One-electron integral symmetry used in STVInt
   1 Symmetry operations used in ECPInt.
 ECPInt:  NShTT=   73153 NPrTT=  279412 LenC2=   57504 LenP2D=  134560.
 LDataN:  DoStor=T MaxTD1= 9 Len=  602
 NBasis=   888 RedAO= T EigKep=  2.60D-04  NBF=   888
 NBsUse=   888 1.00D-06 EigRej= -1.00D+00 NBFU=   888
 Precomputing XC quadrature grid using
 IXCGrd= 4 IRadAn=           5 IRanWt=          -1 IRanGd=           0 AccXCQ= 0.00D+00.
 Defaulting to unpruned grid for atomic number  71.
 Generated NRdTot=       0 NPtTot=           0 NUsed=           0 NTot=          32
 NSgBfM=   901   887   895   898   901 MxSgAt=    67 MxSgA2=    67.
 Leave Link  302 at Fri May  2 16:23:23 2025, MaxMem= 82678120448 cpu:              56.9 elap:               2.5
 (Enter /sysapps/ubuntu-applications/gaussian-new/avx/g16/l303.exe)
 DipDrv:  MaxL=1.
 Leave Link  303 at Fri May  2 16:23:24 2025, MaxMem= 82678120448 cpu:               6.8 elap:               0.4
 (Enter /sysapps/ubuntu-applications/gaussian-new/avx/g16/l401.exe)
 ExpMin= 2.91D-02 ExpMax= 9.52D+04 ExpMxC= 1.55D+04 IAcc=3 IRadAn=         5 AccDes= 0.00D+00
 Harris functional with IExCor= 1009 and IRadAn=       5 diagonalized for initial guess.
[...]
 
              Baa     0.0000     0.000     0.000     0.000  1.0000  0.0000  0.0000
     5 C(13)  Bbb     0.0000     0.000     0.000     0.000 -0.0000  1.0000  0.0000
              Bcc     0.0000     0.000     0.000     0.000  0.0000  0.0000  1.0000
 
              Baa     0.0000     0.000     0.000     0.000  1.0000  0.0000  0.0000
     6 C(13)  Bbb     0.0000     0.000     0.000     0.000 -0.0000  1.0000  0.0000
              Bcc     0.0000     0.000     0.000     0.000  0.0000  0.0000  1.0000
 
              Baa     0.0000     0.000     0.000     0.000  1.0000  0.0000  0.0000
     7 C(13)  Bbb     0.0000     0.000     0.000     0.000 -0.0000  1.0000  0.0000
              Bcc     0.0000     0.000     0.000     0.000  0.0000  0.0000  1.0000
 
              Baa     0.0000     0.000     0.000     0.000  1.0000  0.0000  0.0000
     8 C(13)  Bbb     0.0000     0.000     0.000     0.000 -0.0000  1.0000  0.0000
              Bcc     0.0000     0.000     0.000     0.000  0.0000  0.0000  1.0000
 
              Baa     0.0000     0.000     0.000     0.000  1.0000  0.0000  0.0000
     9 C(13)  Bbb     0.0000     0.000     0.000     0.000 -0.0000  1.0000  0.0000
              Bcc     0.0000     0.000     0.000     0.000  0.0000  0.0000  1.0000
 
              Baa     0.0000     0.000     0.000     0.000  1.0000  0.0000  0.0000
    10 H(1)   Bbb     0.0000     0.000     0.000     0.000 -0.0000  1.0000  0.0000
              Bcc     0.0000     0.000     0.000     0.000  0.0000  0.0000  1.0000
 
              Baa     0.0000     0.000     0.000     0.000  1.0000  0.0000  0.0000
    11 H(1)   Bbb     0.0000     0.000     0.000     0.000 -0.0000  1.0000  0.0000
              Bcc     0.0000     0.000     0.000     0.000  0.0000  0.0000  1.0000
 
              Baa     0.0000     0.000     0.000     0.000  1.0000  0.0000  0.0000
    12 H(1)   Bbb     0.0000     0.000     0.000     0.000 -0.0000  1.0000  0.0000
              Bcc     0.0000     0.000     0.000     0.000  0.0000  0.0000  1.0000
 
              Baa     0.0000     0.000     0.000     0.000  1.0000  0.0000  0.0000
    13 H(1)   Bbb     0.0000     0.000     0.000     0.000 -0.0000  1.0000  0.0000
              Bcc     0.0000     0.000     0.000     0.000  0.0000  0.0000  1.0000
 
              Baa     0.0000     0.000     0.000     0.000  1.0000  0.0000  0.0000
    14 H(1)   Bbb     0.0000     0.000     0.000     0.000 -0.0000  1.0000  0.0000
              Bcc     0.0000     0.000     0.000     0.000  0.0000  0.0000  1.0000
 
              Baa     0.0000    -0.000    -0.000    -0.000  1.0000  0.0000  0.0000
    15 O(17)  Bbb     0.0000    -0.000    -0.000    -0.000 -0.0000  1.0000  0.0000
              Bcc     0.0000    -0.000    -0.000    -0.000  0.0000  0.0000  1.0000
 
              Baa     0.0000    -0.000    -0.000    -0.000  1.0000  0.0000  0.0000
    16 O(17)  Bbb     0.0000    -0.000    -0.000    -0.000 -0.0000  1.0000  0.0000
              Bcc     0.0000    -0.000    -0.000    -0.000  0.0000  0.0000  1.0000
 
              Baa     0.0000    -0.000    -0.000    -0.000  1.0000  0.0000  0.0000
    17 O(17)  Bbb     0.0000    -0.000    -0.000    -0.000 -0.0000  1.0000  0.0000
              Bcc     0.0000    -0.000    -0.000    -0.000  0.0000  0.0000  1.0000
 
              Baa     0.0000    -0.000    -0.000    -0.000  1.0000  0.0000  0.0000
    18 O(17)  Bbb     0.0000    -0.000    -0.000    -0.000 -0.0000  1.0000  0.0000
              Bcc     0.0000    -0.000    -0.000    -0.000  0.0000  0.0000  1.0000
 
              Baa     0.0000    -0.000    -0.000    -0.000  1.0000  0.0000  0.0000
    19 O(17)  Bbb     0.0000    -0.000    -0.000    -0.000 -0.0000  1.0000  0.0000
              Bcc     0.0000    -0.000    -0.000    -0.000  0.0000  0.0000  1.0000
 
              Baa     0.0000     0.000     0.000     0.000  1.0000  0.0000  0.0000
    20 S(33)  Bbb     0.0000     0.000     0.000     0.000 -0.0000  1.0000  0.0000
              Bcc     0.0000     0.000     0.000     0.000  0.0000  0.0000  1.0000
 
              Baa     0.0000     0.000     0.000     0.000  1.0000  0.0000  0.0000
    21 S(33)  Bbb     0.0000     0.000     0.000     0.000 -0.0000  1.0000  0.0000
              Bcc     0.0000     0.000     0.000     0.000  0.0000  0.0000  1.0000
 
              Baa     0.0000     0.000     0.000     0.000  1.0000  0.0000  0.0000
    22 S(33)  Bbb     0.0000     0.000     0.000     0.000 -0.0000  1.0000  0.0000
              Bcc     0.0000     0.000     0.000     0.000  0.0000  0.0000  1.0000
 
              Baa     0.0000    -0.000    -0.000    -0.000  1.0000  0.0000  0.0000
    23 O(17)  Bbb     0.0000    -0.000    -0.000    -0.000 -0.0000  1.0000  0.0000
              Bcc     0.0000    -0.000    -0.000    -0.000  0.0000  0.0000  1.0000
 
              Baa     0.0000    -0.000    -0.000    -0.000  1.0000  0.0000  0.0000
    24 O(17)  Bbb     0.0000    -0.000    -0.000    -0.000 -0.0000  1.0000  0.0000
              Bcc     0.0000    -0.000    -0.000    -0.000  0.0000  0.0000  1.0000
 
              Baa     0.0000    -0.000    -0.000    -0.000  1.0000  0.0000  0.0000
    25 O(17)  Bbb     0.0000    -0.000    -0.000    -0.000 -0.0000  1.0000  0.0000
              Bcc     0.0000    -0.000    -0.000    -0.000  0.0000  0.0000  1.0000
 
              Baa     0.0000    -0.000    -0.000    -0.000  1.0000  0.0000  0.0000
    26 O(17)  Bbb     0.0000    -0.000    -0.000    -0.000 -0.0000  1.0000  0.0000
              Bcc     0.0000    -0.000    -0.000    -0.000  0.0000  0.0000  1.0000
 
              Baa     0.0000    -0.000    -0.000    -0.000  1.0000  0.0000  0.0000
    27 O(17)  Bbb     0.0000    -0.000    -0.000    -0.000 -0.0000  1.0000  0.0000
              Bcc     0.0000    -0.000    -0.000    -0.000  0.0000  0.0000  1.0000
 
              Baa     0.0000    -0.000    -0.000    -0.000  1.0000  0.0000  0.0000
    28 O(17)  Bbb     0.0000    -0.000    -0.000    -0.000 -0.0000  1.0000  0.0000
              Bcc     0.0000    -0.000    -0.000    -0.000  0.0000  0.0000  1.0000
 
              Baa     0.0000     0.000     0.000     0.000  1.0000  0.0000  0.0000
    29 C(13)  Bbb     0.0000     0.000     0.000     0.000 -0.0000  1.0000  0.0000
              Bcc     0.0000     0.000     0.000     0.000  0.0000  0.0000  1.0000
 
              Baa     0.0000     0.000     0.000     0.000  1.0000  0.0000  0.0000
    30 C(13)  Bbb     0.0000     0.000     0.000     0.000 -0.0000  1.0000  0.0000
              Bcc     0.0000     0.000     0.000     0.000  0.0000  0.0000  1.0000
 
              Baa     0.0000     0.000     0.000     0.000  1.0000  0.0000  0.0000
    31 C(13)  Bbb     0.0000     0.000     0.000     0.000 -0.0000  1.0000  0.0000
              Bcc     0.0000     0.000     0.000     0.000  0.0000  0.0000  1.0000
 
              Baa     0.0000     0.000     0.000     0.000  1.0000  0.0000  0.0000
    32 F(19)  Bbb     0.0000     0.000     0.000     0.000 -0.0000  1.0000  0.0000
              Bcc     0.0000     0.000     0.000     0.000  0.0000  0.0000  1.0000
 
              Baa     0.0000     0.000     0.000     0.000  1.0000  0.0000  0.0000
    33 F(19)  Bbb     0.0000     0.000     0.000     0.000 -0.0000  1.0000  0.0000
              Bcc     0.0000     0.000     0.000     0.000  0.0000  0.0000  1.0000
 
              Baa     0.0000     0.000     0.000     0.000  1.0000  0.0000  0.0000
    34 F(19)  Bbb     0.0000     0.000     0.000     0.000 -0.0000  1.0000  0.0000
              Bcc     0.0000     0.000     0.000     0.000  0.0000  0.0000  1.0000
 
              Baa     0.0000     0.000     0.000     0.000  1.0000  0.0000  0.0000
    35 F(19)  Bbb     0.0000     0.000     0.000     0.000 -0.0000  1.0000  0.0000
              Bcc     0.0000     0.000     0.000     0.000  0.0000  0.0000  1.0000
 
              Baa     0.0000     0.000     0.000     0.000  1.0000  0.0000  0.0000
    36 F(19)  Bbb     0.0000     0.000     0.000     0.000 -0.0000  1.0000  0.0000
              Bcc     0.0000     0.000     0.000     0.000  0.0000  0.0000  1.0000
 
              Baa     0.0000     0.000     0.000     0.000  1.0000  0.0000  0.0000
    37 F(19)  Bbb     0.0000     0.000     0.000     0.000 -0.0000  1.0000  0.0000
              Bcc     0.0000     0.000     0.000     0.000  0.0000  0.0000  1.0000
 
              Baa     0.0000     0.000     0.000     0.000  1.0000  0.0000  0.0000
    38 F(19)  Bbb     0.0000     0.000     0.000     0.000 -0.0000  1.0000  0.0000
              Bcc     0.0000     0.000     0.000     0.000  0.0000  0.0000  1.0000
 
              Baa     0.0000     0.000     0.000     0.000  1.0000  0.0000  0.0000
    39 F(19)  Bbb     0.0000     0.000     0.000     0.000 -0.0000  1.0000  0.0000
              Bcc     0.0000     0.000     0.000     0.000  0.0000  0.0000  1.0000
 
              Baa     0.0000     0.000     0.000     0.000  1.0000  0.0000  0.0000
    40 F(19)  Bbb     0.0000     0.000     0.000     0.000 -0.0000  1.0000  0.0000
              Bcc     0.0000     0.000     0.000     0.000  0.0000  0.0000  1.0000
 
              Baa     0.0000     0.000     0.000     0.000  1.0000  0.0000  0.0000
    41 C(13)  Bbb     0.0000     0.000     0.000     0.000 -0.0000  1.0000  0.0000
              Bcc     0.0000     0.000     0.000     0.000  0.0000  0.0000  1.0000
 
              Baa     0.0000     0.000     0.000     0.000  1.0000  0.0000  0.0000
    42 H(1)   Bbb     0.0000     0.000     0.000     0.000 -0.0000  1.0000  0.0000
              Bcc     0.0000     0.000     0.000     0.000  0.0000  0.0000  1.0000
 
              Baa     0.0000     0.000     0.000     0.000  1.0000  0.0000  0.0000
    43 C(13)  Bbb     0.0000     0.000     0.000     0.000 -0.0000  1.0000  0.0000
              Bcc     0.0000     0.000     0.000     0.000  0.0000  0.0000  1.0000
 
              Baa     0.0000     0.000     0.000     0.000  1.0000  0.0000  0.0000
    44 C(13)  Bbb     0.0000     0.000     0.000     0.000 -0.0000  1.0000  0.0000
              Bcc     0.0000     0.000     0.000     0.000  0.0000  0.0000  1.0000
 
              Baa     0.0000     0.000     0.000     0.000  1.0000  0.0000  0.0000
    45 C(13)  Bbb     0.0000     0.000     0.000     0.000 -0.0000  1.0000  0.0000
              Bcc     0.0000     0.000     0.000     0.000  0.0000  0.0000  1.0000
 
              Baa     0.0000     0.000     0.000     0.000  1.0000  0.0000  0.0000
    46 C(13)  Bbb     0.0000     0.000     0.000     0.000 -0.0000  1.0000  0.0000
              Bcc     0.0000     0.000     0.000     0.000  0.0000  0.0000  1.0000
 
              Baa     0.0000     0.000     0.000     0.000  1.0000  0.0000  0.0000
    47 C(13)  Bbb     0.0000     0.000     0.000     0.000 -0.0000  1.0000  0.0000
              Bcc     0.0000     0.000     0.000     0.000  0.0000  0.0000  1.0000
 
              Baa     0.0000     0.000     0.000     0.000  1.0000  0.0000  0.0000
    48 C(13)  Bbb     0.0000     0.000     0.000     0.000 -0.0000  1.0000  0.0000
              Bcc     0.0000     0.000     0.000     0.000  0.0000  0.0000  1.0000
 
              Baa     0.0000     0.000     0.000     0.000  1.0000  0.0000  0.0000
    49 H(1)   Bbb     0.0000     0.000     0.000     0.000 -0.0000  1.0000  0.0000
              Bcc     0.0000     0.000     0.000     0.000  0.0000  0.0000  1.0000
 
              Baa     0.0000     0.000     0.000     0.000  1.0000  0.0000  0.0000
    50 H(1)   Bbb     0.0000     0.000     0.000     0.000 -0.0000  1.0000  0.0000
              Bcc     0.0000     0.000     0.000     0.000  0.0000  0.0000  1.0000
 
              Baa     0.0000     0.000     0.000     0.000  1.0000  0.0000  0.0000
    51 H(1)   Bbb     0.0000     0.000     0.000     0.000 -0.0000  1.0000  0.0000
              Bcc     0.0000     0.000     0.000     0.000  0.0000  0.0000  1.0000
 
              Baa     0.0000     0.000     0.000     0.000  1.0000  0.0000  0.0000
    52 N(14)  Bbb     0.0000     0.000     0.000     0.000 -0.0000  1.0000  0.0000
              Bcc     0.0000     0.000     0.000     0.000  0.0000  0.0000  1.0000
 
              Baa     0.0000     0.000     0.000     0.000  1.0000  0.0000  0.0000
    53 N(14)  Bbb     0.0000     0.000     0.000     0.000 -0.0000  1.0000  0.0000
              Bcc     0.0000     0.000     0.000     0.000  0.0000  0.0000  1.0000
 
              Baa     0.0000     0.000     0.000     0.000  1.0000  0.0000  0.0000
    54 N(14)  Bbb     0.0000     0.000     0.000     0.000 -0.0000  1.0000  0.0000
              Bcc     0.0000     0.000     0.000     0.000  0.0000  0.0000  1.0000
 
              Baa     0.0000     0.000     0.000     0.000  1.0000  0.0000  0.0000
    55 N(14)  Bbb     0.0000     0.000     0.000     0.000 -0.0000  1.0000  0.0000
              Bcc     0.0000     0.000     0.000     0.000  0.0000  0.0000  1.0000
 
              Baa     0.0000     0.000     0.000     0.000  1.0000  0.0000  0.0000
    56 C(13)  Bbb     0.0000     0.000     0.000     0.000 -0.0000  1.0000  0.0000
              Bcc     0.0000     0.000     0.000     0.000  0.0000  0.0000  1.0000
 
              Baa     0.0000     0.000     0.000     0.000  1.0000  0.0000  0.0000
    57 H(1)   Bbb     0.0000     0.000     0.000     0.000 -0.0000  1.0000  0.0000
              Bcc     0.0000     0.000     0.000     0.000  0.0000  0.0000  1.0000
 
              Baa     0.0000     0.000     0.000     0.000  1.0000  0.0000  0.0000
    58 Lu(175 Bbb     0.0000     0.000     0.000     0.000 -0.0000  1.0000  0.0000
              Bcc     0.0000     0.000     0.000     0.000  0.0000  0.0000  1.0000
 
              Baa     0.0000    -0.000    -0.000    -0.000  1.0000  0.0000  0.0000
    59 O(17)  Bbb     0.0000    -0.000    -0.000    -0.000 -0.0000  1.0000  0.0000
              Bcc     0.0000    -0.000    -0.000    -0.000  0.0000  0.0000  1.0000
 
              Baa     0.0000     0.000     0.000     0.000  1.0000  0.0000  0.0000
    60 C(13)  Bbb     0.0000     0.000     0.000     0.000 -0.0000  1.0000  0.0000
              Bcc     0.0000     0.000     0.000     0.000  0.0000  0.0000  1.0000
 
              Baa     0.0000     0.000     0.000     0.000  1.0000  0.0000  0.0000
    61 H(1)   Bbb     0.0000     0.000     0.000     0.000 -0.0000  1.0000  0.0000
              Bcc     0.0000     0.000     0.000     0.000  0.0000  0.0000  1.0000
 
              Baa     0.0000     0.000     0.000     0.000  1.0000  0.0000  0.0000
    62 H(1)   Bbb     0.0000     0.000     0.000     0.000 -0.0000  1.0000  0.0000
              Bcc     0.0000     0.000     0.000     0.000  0.0000  0.0000  1.0000
 
              Baa     0.0000     0.000     0.000     0.000  1.0000  0.0000  0.0000
    63 H(1)   Bbb     0.0000     0.000     0.000     0.000 -0.0000  1.0000  0.0000
              Bcc     0.0000     0.000     0.000     0.000  0.0000  0.0000  1.0000
 
              Baa     0.0000     0.000     0.000     0.000  1.0000  0.0000  0.0000
    64 C(13)  Bbb     0.0000     0.000     0.000     0.000 -0.0000  1.0000  0.0000
              Bcc     0.0000     0.000     0.000     0.000  0.0000  0.0000  1.0000
 
              Baa     0.0000     0.000     0.000     0.000  1.0000  0.0000  0.0000
    65 H(1)   Bbb     0.0000     0.000     0.000     0.000 -0.0000  1.0000  0.0000
              Bcc     0.0000     0.000     0.000     0.000  0.0000  0.0000  1.0000
 
              Baa     0.0000     0.000     0.000     0.000  1.0000  0.0000  0.0000
    66 H(1)   Bbb     0.0000     0.000     0.000     0.000 -0.0000  1.0000  0.0000
              Bcc     0.0000     0.000     0.000     0.000  0.0000  0.0000  1.0000
 
              Baa     0.0000     0.000     0.000     0.000  1.0000  0.0000  0.0000
    67 H(1)   Bbb     0.0000     0.000     0.000     0.000 -0.0000  1.0000  0.0000
              Bcc     0.0000     0.000     0.000     0.000  0.0000  0.0000  1.0000
 

 ---------------------------------------------------------------------------------

 No NMR shielding tensors so no spin-rotation constants.
 Leave Link  601 at Fri May  2 23:20:56 2025, MaxMem= 82678120448 cpu:              30.8 elap:               1.4
 (Enter /sysapps/ubuntu-applications/gaussian-new/avx/g16/l9999.exe)
 1\1\GINC-ACIDSMN002\FOpt\UMN15\GenECP\C22H16F9Lu1N4O12S3\SELHAJJ1\02-M
 ay-2025\0\\#P UMN15/genecp scf=(maxcyc=500) opt scrf=(smd,solvent=DiCh
 loroEthane)\\Opt\\0,1\C,-4.4596048707,1.1397345033,0.9998823019\C,-5.6
 935426996,0.4776268858,1.0125623766\C,-6.3767461489,0.3002414212,2.216
 9272951\C,-5.842855637,0.8038474534,3.4068130588\C,-4.6293438715,1.496
 236907,3.388958227\C,-3.9364767289,1.6651929045,2.1886814164\C,-2.2947
 219372,0.6798731856,-0.3051214812\C,-1.5539778852,0.4110293506,-1.6089
 425651\C,-1.6470739495,0.035452105,0.9157958114\H,-6.1164965651,0.1003
 889518,0.0785764293\H,-7.3297108064,-0.2335255511,2.2243589258\H,-6.37
 95132075,0.6653448476,4.3479752932\H,-4.2192633126,1.9083846951,4.3135
 46429\H,-2.9889635733,2.2110951166,2.1697194778\O,-0.5116581268,0.4022
 805937,1.2116683297\O,-0.3260120041,0.3350782079,-1.5496264802\O,2.370
 666518,0.1951796196,1.9454489274\O,2.7285855748,-0.573131807,-1.263289
 1768\O,0.4585141991,2.8805974623,0.1927119527\S,1.1477667463,3.5021386
 391,-0.9895796004\S,3.4413592775,1.2491562286,1.960840895\S,2.06346861
 45,-1.8929092137,-1.0011261162\O,1.7809650492,2.3531432551,-1.70793433
 48\O,1.935888811,4.6827631859,-0.7594673912\O,3.2468072212,1.987950445
 8,0.6761292112\O,3.6062143513,2.0099185386,3.1691178237\O,0.9819120506
 ,-1.5999453197,-0.017148154\O,1.7249110214,-2.6939977688,-2.1529596448
 \C,3.3094083562,-2.8850183456,-0.0675287717\C,5.0130489747,0.314703608
 ,1.7308636162\C,-0.2421357789,4.052056875,-2.0709006924\F,2.8818409672
 ,-4.1334728166,-0.0174537021\F,3.4385655983,-2.4138966614,1.1560199924
 \F,4.4639192459,-2.8308230154,-0.6973383266\F,5.0324317933,-0.24290952
 54,0.5343323083\F,5.0951139114,-0.6163212058,2.6604336282\F,6.02210073
 28,1.1539166554,1.8458851295\F,-0.8528238873,3.0034736737,-2.596616123
 \F,0.2445728781,4.8042964516,-3.0372746765\F,-1.0953221467,4.746651442
 1,-1.347593783\C,-3.6729616164,1.2253132654,-0.2652709147\H,-4.2449783
 999,1.2366959934,-1.1999777585\C,-4.8072698141,-2.7175696364,-0.580979
 0055\C,-5.135861544,-1.7603423912,-1.5595024765\C,-5.7205061958,-3.075
 250618,0.4286604456\C,-1.8404677318,-4.7468130594,0.19754945\C,-1.4098
 312667,-3.0968744671,-1.450753096\C,-0.9267641231,-4.1422285914,-0.653
 721052\H,-1.5664743852,-5.5759442808,0.8508794143\H,-0.7608886438,-2.5
 728429906,-2.1569135128\H,0.1183803459,-4.4457897827,-0.709959621\N,-5
 .4460924092,-0.9525633425,-2.3439209136\N,-6.4757196418,-3.3516656327,
 1.2749039328\N,-3.5111288586,-3.2530527472,-0.5815992174\N,-2.65540028
 49,-2.6563988791,-1.4061224772\C,-3.1523111048,-4.289846158,0.21140795
 64\H,-3.9352369029,-4.7255861471,0.8324351875\Lu,1.355295998,0.7779786
 069,-0.0303203182\O,-2.5348358825,2.0720822654,-0.225909952\C,-2.29013
 29417,-1.0828996784,1.6511439348\H,-1.6988518461,-1.983677275,1.398755
 5928\H,-2.1678664185,-0.9257417592,2.7326546277\H,-3.3462750359,-1.229
 2111355,1.3953604653\C,-2.2883704984,0.3850595992,-2.8899282237\H,-3.0
 426251217,-0.4154841736,-2.8692964355\H,-2.83921105,1.3342496247,-2.99
 83242435\H,-1.588621922,0.2613059019,-3.7242041154\\Version=ES64L-G16R
 evA.03\State=1-A\HF=-5295.9963363\S2=0.\S2-1=0.\S2A=0.\RMSD=4.404e-09\
 RMSF=1.306e-05\Dipole=-2.7656736,-5.1376389,0.2480341\Quadrupole=-26.3
 107122,20.5932228,5.7174894,-15.7423596,-6.6346145,-5.998043\PG=C01 [X
 (C22H16F9Lu1N4O12S3)]\\@


 WE ARE REACHING THE STAGE WHERE THE PROBLEMS WE MUST SOLVE ARE 
 GOING TO BECOME INSOLUBLE WITHOUT COMPUTERS.
 I DO NOT FEAR COMPUTERS.  I FEAR THE LACK OF THEM.

                                   -- ISSAC ASIMOV
 Job cpu time:       6 days 20 hours 51 minutes 18.8 seconds.
 Elapsed time:       0 days  6 hours 56 minutes 50.7 seconds.
 File lengths (MBytes):  RWF=   1564 Int=      0 D2E=      0 Chk=     88 Scr=      8
 Normal termination of Gaussian 16 at Fri May  2 23:20:56 2025.
