 Entering Gaussian System, Link 0=/sysapps/ubuntu-applications/gaussian-new/avx/g16//g16
 Input=preplx.in
 Output=preplx.log
 Initial command:
 /sysapps/ubuntu-applications/gaussian-new/avx/g16/l1.exe "/data/temp-scratch/selhajj1/310070/Gau-1651496.inp" -scrdir="/data/temp-scratch/selhajj1/310070/"
 Entering Link 1 = /sysapps/ubuntu-applications/gaussian-new/avx/g16/l1.exe PID=   1651498.
  
 Copyright (c) 1988,1990,1992,1993,1995,1998,2003,2009,2016,
            Gaussian, Inc.  All Rights Reserved.
  
 This is part of the Gaussian(R) 16 program.  It is based on
 the Gaussian(R) 09 system (copyright 2009, Gaussian, Inc.),
 the Gaussian(R) 03 system (copyright 2003, Gaussian, Inc.),
 the Gaussian(R) 98 system (copyright 1998, Gaussian, Inc.),
 the Gaussian(R) 94 system (copyright 1995, Gaussian, Inc.),
 the Gaussian 92(TM) system (copyright 1992, Gaussian, Inc.),
 the Gaussian 90(TM) system (copyright 1990, Gaussian, Inc.),
 the Gaussian 88(TM) system (copyright 1988, Gaussian, Inc.),
 the Gaussian 86(TM) system (copyright 1986, Carnegie Mellon
 University), and the Gaussian 82(TM) system (copyright 1983,
 Carnegie Mellon University). Gaussian is a federally registered
 trademark of Gaussian, Inc.
  
 This software contains proprietary and confidential information,
 including trade secrets, belonging to Gaussian, Inc.
  
 This software is provided under written license and may be
 used, copied, transmitted, or stored only in accord with that
 written license.
  
 The following legend is applicable only to US Government
 contracts under FAR:
  
                    RESTRICTED RIGHTS LEGEND
  
 Use, reproduction and disclosure by the US Government is
 subject to restrictions as set forth in subparagraphs (a)
 and (c) of the Commercial Computer Software - Restricted
 Rights clause in FAR 52.227-19.
  
 Gaussian, Inc.
 340 Quinnipiac St., Bldg. 40, Wallingford CT 06492
  
  
 ---------------------------------------------------------------
 Warning -- This program may not be used in any manner that
 competes with the business of Gaussian, Inc. or will provide
 assistance to any competitor of Gaussian, Inc.  The licensee
 of this program is prohibited from giving any competitor of
 Gaussian, Inc. access to this program.  By using this program,
 the user acknowledges that Gaussian, Inc. is engaged in the
 business of creating and licensing software in the field of
 computational chemistry and represents and warrants to the
 licensee that it is not a competitor of Gaussian, Inc. and that
 it will not use this program in any manner prohibited above.
 ---------------------------------------------------------------
  

 Cite this work as:
 Gaussian 16, Revision A.03,
 M. J. Frisch, G. W. Trucks, H. B. Schlegel, G. E. Scuseria, 
 M. A. Robb, J. R. Cheeseman, G. Scalmani, V. Barone, 
 G. A. Petersson, H. Nakatsuji, X. Li, M. Caricato, A. V. Marenich, 
 J. Bloino, B. G. Janesko, R. Gomperts, B. Mennucci, H. P. Hratchian, 
 J. V. Ortiz, A. F. Izmaylov, J. L. Sonnenberg, D. Williams-Young, 
 F. Ding, F. Lipparini, F. Egidi, J. Goings, B. Peng, A. Petrone, 
 T. Henderson, D. Ranasinghe, V. G. Zakrzewski, J. Gao, N. Rega, 
 G. Zheng, W. Liang, M. Hada, M. Ehara, K. Toyota, R. Fukuda, 
 J. Hasegawa, M. Ishida, T. Nakajima, Y. Honda, O. Kitao, H. Nakai, 
 T. Vreven, K. Throssell, J. A. Montgomery, Jr., J. E. Peralta, 
 F. Ogliaro, M. J. Bearpark, J. J. Heyd, E. N. Brothers, K. N. Kudin, 
 V. N. Staroverov, T. A. Keith, R. Kobayashi, J. Normand, 
 K. Raghavachari, A. P. Rendell, J. C. Burant, S. S. Iyengar, 
 J. Tomasi, M. Cossi, J. M. Millam, M. Klene, C. Adamo, R. Cammi, 
 J. W. Ochterski, R. L. Martin, K. Morokuma, O. Farkas, 
 J. B. Foresman, and D. J. Fox, Gaussian, Inc., Wallingford CT, 2016.
 
 ******************************************
 Gaussian 16:  ES64L-G16RevA.03 25-Dec-2016
                 3-May-2025 
 ******************************************
 %chk=preplx.chk
 %mem=616Gb
 %nprocshared=24
 Will use up to   24 processors via shared memory.
 ----------------------------------------------------------------------
 #P UMN15/genecp scf=(maxcyc=500) freq scrf=(smd,solvent=DiChloroEthane
 )
 ----------------------------------------------------------------------
 1/10=4,30=1,38=1/1,3;
 2/12=2,17=6,18=5,40=1/2;
 3/5=7,11=2,16=1,17=8,25=1,30=1,70=32201,71=2,72=10,74=-73,116=2,140=1/1,2,3;
 4//1;
 5/5=2,7=500,38=5,53=10,98=1/2;
 8/6=4,10=90,11=11/1;
 11/6=1,8=1,9=11,15=111,16=1/1,2,10;
 10/6=1/2;
 6/7=2,8=2,9=2,10=2,28=1/1;
 7/8=1,10=1,25=1/1,2,3,16;
 1/10=4,30=1/3;
 99//99;
 Leave Link    1 at Sat May  3 00:30:59 2025, MaxMem= 82678120448 cpu:               3.0 elap:               0.2
 (Enter /sysapps/ubuntu-applications/gaussian-new/avx/g16/l101.exe)
 ----
 freq
 ----
 Symbolic Z-matrix:
 Charge =  0 Multiplicity = 1
 C                     4.20428  -1.71328   1.27478 
 C                     5.53638  -1.28154   1.29067 
 C                     6.20249  -1.12149   2.50698 
 C                     5.54971  -1.41483   3.70794 
 C                     4.23239  -1.88033   3.69033 
 C                     3.55817  -2.03005   2.47695 
 C                     2.19957  -0.99544  -0.16294 
 C                     1.56046  -0.71676  -1.51749 
 C                     1.641    -0.14061   0.96959 
 H                     6.04934  -1.06967   0.34965 
 H                     7.23538  -0.76629   2.51506 
 H                     6.07294  -1.29036   4.65858 
 H                     3.72609  -2.12953   4.62546 
 H                     2.52881  -2.39914   2.45864 
 O                     0.44939  -0.27292   1.24129 
 O                     0.36508  -0.41972  -1.52187 
 O                    -2.36979   0.50542   1.82056 
 O                    -2.48309   1.03654  -1.4535 
 O                    -0.91955  -2.62105   0.38464 
 S                    -1.67239  -3.21343  -0.7736 
 S                    -3.61294  -0.33683   1.87232 
 S                    -1.59938   2.23578  -1.26961 
 O                    -2.0653   -2.03901  -1.61236 
 O                    -2.66728  -4.21073  -0.48454 
 O                    -3.51485  -1.20965   0.66289 
 O                    -3.94987  -0.94591   3.12984 
 O                    -0.61959   1.8447   -0.21562 
 O                    -1.08617   2.85866  -2.46615 
 C                    -2.67448   3.51175  -0.47946 
 C                    -4.98241   0.83682   1.49361 
 C                    -0.37142  -4.09458  -1.74032 
 F                    -2.03056   4.66425  -0.51194 
 F                    -2.92455   3.18161   0.77121 
 F                    -3.79963   3.60694  -1.15582 
 F                    -4.86361   1.28042   0.25583 
 F                    -4.92418   1.84658   2.33897 
 F                    -6.12934   0.20303   1.62984 
 F                     0.43444  -3.22159  -2.32112 
 F                    -0.95543  -4.83171  -2.66346 
 F                     0.31956  -4.86209  -0.9236 
 C                     3.45493  -1.77045  -0.01439 
 H                     4.04437  -1.96595  -0.91735 
 C                     5.29094   1.86552  -0.59876 
 C                     5.47187   0.78209  -1.47922 
 C                     6.22178   2.14427   0.41965 
 C                     2.7159    4.44883  -0.12811 
 C                     2.04639   2.76123  -1.65401 
 C                     1.73514   3.94224  -0.96865 
 H                     2.57569   5.36812   0.44165 
 H                     1.33592   2.29964  -2.34435 
 H                     0.76414   4.41975  -1.09819 
 N                     5.65565  -0.13434  -2.17954 
 N                     6.98771   2.3568    1.27467 
 N                     4.11327   2.61972  -0.70362 
 N                     3.1901    2.11301  -1.51548 
 C                     3.92276   3.76999  -0.01577 
 H                     4.75168   4.11376   0.60329 
 Lu                   -1.41507  -0.42121  -0.05139 
 O                     2.1821   -2.39552   0.04112 
 C                     2.45195   0.90717   1.64004 
 H                     2.04096   1.8723    1.28745 
 H                     2.26969   0.87093   2.72391 
 H                     3.52461   0.84093   1.42262 
 C                     2.32706  -0.93518  -2.76069 
 H                     3.2123   -0.28214  -2.77057 
 H                     2.70081  -1.97269  -2.7652 
 H                     1.68745  -0.76422  -3.63399 
 
 ITRead=  0  0  0  0  0  0  0  0  0  0  0  0  0  0  0  0  0  0  0  0
 ITRead=  0  0  0  0  0  0  0  0  0  0  0  0  0  0  0  0  0  0  0  0
 ITRead=  0  0  0  0  0  0  0  0  0  0  0  0  0  0  0  0  0  0  0  0
 ITRead=  0  0  0  0  0  0  0
 MicOpt= -1 -1 -1 -1 -1 -1 -1 -1 -1 -1 -1 -1 -1 -1 -1 -1 -1 -1 -1 -1
 MicOpt= -1 -1 -1 -1 -1 -1 -1 -1 -1 -1 -1 -1 -1 -1 -1 -1 -1 -1 -1 -1
 MicOpt= -1 -1 -1 -1 -1 -1 -1 -1 -1 -1 -1 -1 -1 -1 -1 -1 -1 -1 -1 -1
 MicOpt= -1 -1 -1 -1 -1 -1 -1
 NAtoms=     67 NQM=       67 NQMF=       0 NMMI=      0 NMMIF=      0
                NMic=       0 NMicF=      0.
                    Isotopes and Nuclear Properties:
 (Nuclear quadrupole moments (NQMom) in fm**2, nuclear magnetic moments (NMagM)
  in nuclear magnetons)

  Atom         1           2           3           4           5           6           7           8           9          10
 IAtWgt=          12          12          12          12          12          12          12          12          12           1
 AtmWgt=  12.0000000  12.0000000  12.0000000  12.0000000  12.0000000  12.0000000  12.0000000  12.0000000  12.0000000   1.0078250
 NucSpn=           0           0           0           0           0           0           0           0           0           1
 AtZEff=  -0.0000000  -0.0000000  -0.0000000  -0.0000000  -0.0000000  -0.0000000  -0.0000000  -0.0000000  -0.0000000  -0.0000000
 NQMom=    0.0000000   0.0000000   0.0000000   0.0000000   0.0000000   0.0000000   0.0000000   0.0000000   0.0000000   0.0000000
 NMagM=    0.0000000   0.0000000   0.0000000   0.0000000   0.0000000   0.0000000   0.0000000   0.0000000   0.0000000   2.7928460
 AtZNuc=   6.0000000   6.0000000   6.0000000   6.0000000   6.0000000   6.0000000   6.0000000   6.0000000   6.0000000   1.0000000

  Atom        11          12          13          14          15          16          17          18          19          20
 IAtWgt=           1           1           1           1          16          16          16          16          16          32
 AtmWgt=   1.0078250   1.0078250   1.0078250   1.0078250  15.9949146  15.9949146  15.9949146  15.9949146  15.9949146  31.9720718
 NucSpn=           1           1           1           1           0           0           0           0           0           0
 AtZEff=  -0.0000000  -0.0000000  -0.0000000  -0.0000000  -0.0000000  -0.0000000  -0.0000000  -0.0000000  -0.0000000  -0.0000000
 NQMom=    0.0000000   0.0000000   0.0000000   0.0000000   0.0000000   0.0000000   0.0000000   0.0000000   0.0000000   0.0000000
 NMagM=    2.7928460   2.7928460   2.7928460   2.7928460   0.0000000   0.0000000   0.0000000   0.0000000   0.0000000   0.0000000
 AtZNuc=   1.0000000   1.0000000   1.0000000   1.0000000   8.0000000   8.0000000   8.0000000   8.0000000   8.0000000  16.0000000

  Atom        21          22          23          24          25          26          27          28          29          30
 IAtWgt=          32          32          16          16          16          16          16          16          12          12
 AtmWgt=  31.9720718  31.9720718  15.9949146  15.9949146  15.9949146  15.9949146  15.9949146  15.9949146  12.0000000  12.0000000
 NucSpn=           0           0           0           0           0           0           0           0           0           0
 AtZEff=  -0.0000000  -0.0000000  -0.0000000  -0.0000000  -0.0000000  -0.0000000  -0.0000000  -0.0000000  -0.0000000  -0.0000000
 NQMom=    0.0000000   0.0000000   0.0000000   0.0000000   0.0000000   0.0000000   0.0000000   0.0000000   0.0000000   0.0000000
 NMagM=    0.0000000   0.0000000   0.0000000   0.0000000   0.0000000   0.0000000   0.0000000   0.0000000   0.0000000   0.0000000
 AtZNuc=  16.0000000  16.0000000   8.0000000   8.0000000   8.0000000   8.0000000   8.0000000   8.0000000   6.0000000   6.0000000

  Atom        31          32          33          34          35          36          37          38          39          40
 IAtWgt=          12          19          19          19          19          19          19          19          19          19
 AtmWgt=  12.0000000  18.9984032  18.9984032  18.9984032  18.9984032  18.9984032  18.9984032  18.9984032  18.9984032  18.9984032
 NucSpn=           0           1           1           1           1           1           1           1           1           1
 AtZEff=  -0.0000000  -0.0000000  -0.0000000  -0.0000000  -0.0000000  -0.0000000  -0.0000000  -0.0000000  -0.0000000  -0.0000000
 NQMom=    0.0000000   0.0000000   0.0000000   0.0000000   0.0000000   0.0000000   0.0000000   0.0000000   0.0000000   0.0000000
 NMagM=    0.0000000   2.6288670   2.6288670   2.6288670   2.6288670   2.6288670   2.6288670   2.6288670   2.6288670   2.6288670
 AtZNuc=   6.0000000   9.0000000   9.0000000   9.0000000   9.0000000   9.0000000   9.0000000   9.0000000   9.0000000   9.0000000

  Atom        41          42          43          44          45          46          47          48          49          50
 IAtWgt=          12           1          12          12          12          12          12          12           1           1
 AtmWgt=  12.0000000   1.0078250  12.0000000  12.0000000  12.0000000  12.0000000  12.0000000  12.0000000   1.0078250   1.0078250
 NucSpn=           0           1           0           0           0           0           0           0           1           1
 AtZEff=  -0.0000000  -0.0000000  -0.0000000  -0.0000000  -0.0000000  -0.0000000  -0.0000000  -0.0000000  -0.0000000  -0.0000000
 NQMom=    0.0000000   0.0000000   0.0000000   0.0000000   0.0000000   0.0000000   0.0000000   0.0000000   0.0000000   0.0000000
 NMagM=    0.0000000   2.7928460   0.0000000   0.0000000   0.0000000   0.0000000   0.0000000   0.0000000   2.7928460   2.7928460
 AtZNuc=   6.0000000   1.0000000   6.0000000   6.0000000   6.0000000   6.0000000   6.0000000   6.0000000   1.0000000   1.0000000

  Atom        51          52          53          54          55          56          57          58          59          60
 IAtWgt=           1          14          14          14          14          12           1         175          16          12
 AtmWgt=   1.0078250  14.0030740  14.0030740  14.0030740  14.0030740  12.0000000   1.0078250 174.9409000  15.9949146  12.0000000
 NucSpn=           1           2           2           2           2           0           1           7           0           0
 AtZEff=  -0.0000000  -0.0000000  -0.0000000  -0.0000000  -0.0000000  -0.0000000  -0.0000000  -0.0000000  -0.0000000  -0.0000000
 NQMom=    0.0000000   2.0440000   2.0440000   2.0440000   2.0440000   0.0000000   0.0000000 349.0000000   0.0000000   0.0000000
 NMagM=    2.7928460   0.4037610   0.4037610   0.4037610   0.4037610   0.0000000   2.7928460   2.2327000   0.0000000   0.0000000
 AtZNuc=   1.0000000   7.0000000   7.0000000   7.0000000   7.0000000   6.0000000   1.0000000  71.0000000   8.0000000   6.0000000

  Atom        61          62          63          64          65          66          67
 IAtWgt=           1           1           1          12           1           1           1
 AtmWgt=   1.0078250   1.0078250   1.0078250  12.0000000   1.0078250   1.0078250   1.0078250
 NucSpn=           1           1           1           0           1           1           1
 AtZEff=  -0.0000000  -0.0000000  -0.0000000  -0.0000000  -0.0000000  -0.0000000  -0.0000000
 NQMom=    0.0000000   0.0000000   0.0000000   0.0000000   0.0000000   0.0000000   0.0000000
 NMagM=    2.7928460   2.7928460   2.7928460   0.0000000   2.7928460   2.7928460   2.7928460
 AtZNuc=   1.0000000   1.0000000   1.0000000   6.0000000   1.0000000   1.0000000   1.0000000
 Leave Link  101 at Sat May  3 00:31:00 2025, MaxMem= 82678120448 cpu:               5.0 elap:               0.2
 (Enter /sysapps/ubuntu-applications/gaussian-new/avx/g16/l103.exe)

 GradGradGradGradGradGradGradGradGradGradGradGradGradGradGradGradGradGrad
 Berny optimization.
 Initialization pass.
 Trust Radius=3.00D-01 FncErr=1.00D-07 GrdErr=1.00D-07 EigMax=2.50D+02 EigMin=1.00D-04
 Number of steps in this run=      2 maximum allowed number of steps=      2.
 GradGradGradGradGradGradGradGradGradGradGradGradGradGradGradGradGradGrad

 Leave Link  103 at Sat May  3 00:31:00 2025, MaxMem= 82678120448 cpu:               1.2 elap:               0.1
 (Enter /sysapps/ubuntu-applications/gaussian-new/avx/g16/l202.exe)
 Stoichiometry    C22H16F9LuN4O12S3
 Framework group  C1[X(C22H16F9LuN4O12S3)]
 Deg. of freedom   195
 Full point group                 C1      NOp   1
 Largest Abelian subgroup         C1      NOp   1
 Largest concise Abelian subgroup C1      NOp   1
                         Standard orientation:                         
 ---------------------------------------------------------------------
 Center     Atomic      Atomic             Coordinates (Angstroms)
 Number     Number       Type             X           Y           Z
 ---------------------------------------------------------------------
      1          6           0       -4.204280    1.713284    1.274780
      2          6           0       -5.536381    1.281540    1.290668
      3          6           0       -6.202490    1.121489    2.506977
      4          6           0       -5.549708    1.414833    3.707940
      5          6           0       -4.232389    1.880334    3.690332
      6          6           0       -3.558171    2.030049    2.476952
      7          6           0       -2.199565    0.995441   -0.162942
      8          6           0       -1.560456    0.716762   -1.517492
      9          6           0       -1.641002    0.140608    0.969592
     10          1           0       -6.049335    1.069674    0.349647
     11          1           0       -7.235384    0.766285    2.515060
     12          1           0       -6.072940    1.290363    4.658575
     13          1           0       -3.726088    2.129533    4.625456
     14          1           0       -2.528809    2.399138    2.458638
     15          8           0       -0.449388    0.272922    1.241291
     16          8           0       -0.365075    0.419723   -1.521872
     17          8           0        2.369789   -0.505418    1.820558
     18          8           0        2.483086   -1.036541   -1.453504
     19          8           0        0.919549    2.621053    0.384638
     20         16           0        1.672388    3.213428   -0.773603
     21         16           0        3.612943    0.336826    1.872317
     22         16           0        1.599380   -2.235777   -1.269607
     23          8           0        2.065302    2.039007   -1.612364
     24          8           0        2.667275    4.210727   -0.484542
     25          8           0        3.514853    1.209649    0.662891
     26          8           0        3.949868    0.945907    3.129843
     27          8           0        0.619592   -1.844702   -0.215623
     28          8           0        1.086173   -2.858663   -2.466150
     29          6           0        2.674475   -3.511745   -0.479464
     30          6           0        4.982411   -0.836815    1.493607
     31          6           0        0.371416    4.094577   -1.740320
     32          9           0        2.030556   -4.664253   -0.511937
     33          9           0        2.924551   -3.181608    0.771208
     34          9           0        3.799629   -3.606941   -1.155822
     35          9           0        4.863613   -1.280421    0.255828
     36          9           0        4.924177   -1.846575    2.338968
     37          9           0        6.129343   -0.203030    1.629835
     38          9           0       -0.434438    3.221586   -2.321122
     39          9           0        0.955431    4.831707   -2.663463
     40          9           0       -0.319558    4.862090   -0.923595
     41          6           0       -3.454928    1.770445   -0.014386
     42          1           0       -4.044370    1.965946   -0.917352
     43          6           0       -5.290940   -1.865517   -0.598758
     44          6           0       -5.471870   -0.782092   -1.479223
     45          6           0       -6.221780   -2.144268    0.419645
     46          6           0       -2.715904   -4.448834   -0.128109
     47          6           0       -2.046390   -2.761229   -1.654014
     48          6           0       -1.735143   -3.942236   -0.968647
     49          1           0       -2.575688   -5.368123    0.441645
     50          1           0       -1.335922   -2.299635   -2.344350
     51          1           0       -0.764143   -4.419747   -1.098190
     52          7           0       -5.655649    0.134336   -2.179542
     53          7           0       -6.987705   -2.356799    1.274671
     54          7           0       -4.113271   -2.619721   -0.703618
     55          7           0       -3.190102   -2.113014   -1.515476
     56          6           0       -3.922756   -3.769989   -0.015768
     57          1           0       -4.751677   -4.113760    0.603287
     58         71           0        1.415070    0.421209   -0.051385
     59          8           0       -2.182098    2.395522    0.041123
     60          6           0       -2.451950   -0.907170    1.640038
     61          1           0       -2.040959   -1.872304    1.287452
     62          1           0       -2.269693   -0.870928    2.723911
     63          1           0       -3.524614   -0.840930    1.422615
     64          6           0       -2.327062    0.935176   -2.760690
     65          1           0       -3.212297    0.282140   -2.770573
     66          1           0       -2.700812    1.972686   -2.765203
     67          1           0       -1.687454    0.764218   -3.633991
 ---------------------------------------------------------------------
 Rotational constants (GHZ):           0.0696630           0.0421127           0.0337731
 Leave Link  202 at Sat May  3 00:31:00 2025, MaxMem= 82678120448 cpu:               1.1 elap:               0.1
 (Enter /sysapps/ubuntu-applications/gaussian-new/avx/g16/l301.exe)
 General basis read from cards:  (5D, 7F)
 Centers:      10     11     12     13     14     42     49     50     51     57
 Centers:      61     62     63     65     66     67
 S 3 1.00
     Exponent=  1.3010701000D+01 Coefficients=  1.9682158000D-02
     Exponent=  1.9622572000D+00 Coefficients=  1.3796524000D-01
     Exponent=  4.4453796000D-01 Coefficients=  4.7831935000D-01
 S 1 1.00
     Exponent=  1.2194962000D-01 Coefficients=  1.0000000000D+00
 P 1 1.00
     Exponent=  8.0000000000D-01 Coefficients=  1.0000000000D+00
 ****
 Centers:       1      2      3      4      5      6      7      8      9     29
 Centers:      30     31     41     43     44     45     46     47     48     56
 Centers:      60     64
 S 5 1.00
     Exponent=  1.2384016938D+03 Coefficients=  5.4568832082D-03
     Exponent=  1.8629004992D+02 Coefficients=  4.0638409211D-02
     Exponent=  4.2251176346D+01 Coefficients=  1.8025593888D-01
     Exponent=  1.1676557932D+01 Coefficients=  4.6315121755D-01
     Exponent=  3.5930506482D+00 Coefficients=  4.4087173314D-01
 S 1 1.00
     Exponent=  4.0245147363D-01 Coefficients=  1.0000000000D+00
 S 1 1.00
     Exponent=  1.3090182668D-01 Coefficients=  1.0000000000D+00
 P 3 1.00
     Exponent=  9.4680970621D+00 Coefficients=  3.8387871728D-02
     Exponent=  2.0103545142D+00 Coefficients=  2.1117025112D-01
     Exponent=  5.4771004707D-01 Coefficients=  5.1328172114D-01
 P 1 1.00
     Exponent=  1.5268613795D-01 Coefficients=  1.0000000000D+00
 D 1 1.00
     Exponent=  8.0000000000D-01 Coefficients=  1.0000000000D+00
 ****
 Centers:      52     53     54     55
 S 5 1.00
     Exponent=  1.7128415853D+03 Coefficients= -5.3934125305D-03
     Exponent=  2.5764812677D+02 Coefficients= -4.0221581118D-02
     Exponent=  5.8458245853D+01 Coefficients= -1.7931144990D-01
     Exponent=  1.6198367905D+01 Coefficients= -4.6376317823D-01
     Exponent=  5.0052600809D+00 Coefficients= -4.4171422662D-01
 S 1 1.00
     Exponent=  5.8731856571D-01 Coefficients=  1.0000000000D+00
 S 1 1.00
     Exponent=  1.8764592253D-01 Coefficients=  1.0000000000D+00
 P 3 1.00
     Exponent=  1.3571470233D+01 Coefficients= -4.0072398852D-02
     Exponent=  2.9257372874D+00 Coefficients= -2.1807045028D-01
     Exponent=  7.9927750754D-01 Coefficients= -5.1294466049D-01
 P 1 1.00
     Exponent=  2.1954348034D-01 Coefficients=  1.0000000000D+00
 D 1 1.00
     Exponent=  1.0000000000D+00 Coefficients=  1.0000000000D+00
 ****
 Centers:      15     16     17     18     19     23     24     25     26     27
 Centers:      28     59
 S 5 1.00
     Exponent=  2.2661767785D+03 Coefficients= -5.3431809926D-03
     Exponent=  3.4087010191D+02 Coefficients= -3.9890039230D-02
     Exponent=  7.7363135167D+01 Coefficients= -1.7853911985D-01
     Exponent=  2.1479644940D+01 Coefficients= -4.6427684959D-01
     Exponent=  6.6589433124D+00 Coefficients= -4.4309745172D-01
 S 1 1.00
     Exponent=  8.0975975668D-01 Coefficients=  1.0000000000D+00
 S 1 1.00
     Exponent=  2.5530772234D-01 Coefficients=  1.0000000000D+00
 P 3 1.00
     Exponent=  1.7721504317D+01 Coefficients=  4.3394573193D-02
     Exponent=  3.8635505440D+00 Coefficients=  2.3094120765D-01
     Exponent=  1.0480920883D+00 Coefficients=  5.1375311064D-01
 P 1 1.00
     Exponent=  2.7641544411D-01 Coefficients=  1.0000000000D+00
 D 1 1.00
     Exponent=  1.2000000000D+00 Coefficients=  1.0000000000D+00
 ****
 Centers:      32     33     34     35     36     37     38     39     40
 S 5 1.00
     Exponent=  2.8948325990D+03 Coefficients= -5.3408255515D-03
     Exponent=  4.3541939120D+02 Coefficients= -3.9904258866D-02
     Exponent=  9.8843328866D+01 Coefficients= -1.7912768038D-01
     Exponent=  2.7485198001D+01 Coefficients= -4.6758090825D-01
     Exponent=  8.5405498171D+00 Coefficients= -4.4653131020D-01
 S 1 1.00
     Exponent=  1.0654578038D+00 Coefficients=  1.0000000000D+00
 S 1 1.00
     Exponent=  3.3247346748D-01 Coefficients=  1.0000000000D+00
 P 3 1.00
     Exponent=  2.2696633924D+01 Coefficients= -4.5212874436D-02
     Exponent=  4.9872339257D+00 Coefficients= -2.3754317067D-01
     Exponent=  1.3491613954D+00 Coefficients= -5.1287353587D-01
 P 1 1.00
     Exponent=  3.4829881977D-01 Coefficients=  1.0000000000D+00
 D 1 1.00
     Exponent=  1.4000000000D+00 Coefficients=  1.0000000000D+00
 ****
 Centers:      20     21     22
 S 5 1.00
     Exponent=  9.1849303010D+03 Coefficients= -2.2294387756D-03
     Exponent=  1.3815105503D+03 Coefficients= -1.6683029937D-02
     Exponent=  3.1387147580D+02 Coefficients= -7.5262436116D-02
     Exponent=  8.8053870623D+01 Coefficients= -1.9376827038D-01
     Exponent=  2.7039914905D+01 Coefficients= -1.7718020803D-01
 S 3 1.00
     Exponent=  4.5648731303D+01 Coefficients= -1.0736062573D-01
     Exponent=  4.9664522326D+00 Coefficients=  6.5066293018D-01
     Exponent=  2.0116242047D+00 Coefficients=  5.9712155354D-01
 S 1 1.00
     Exponent=  3.5661077013D-01 Coefficients=  1.0000000000D+00
 S 1 1.00
     Exponent=  1.3507221477D-01 Coefficients=  1.0000000000D+00
 P 5 1.00
     Exponent=  2.6198233439D+02 Coefficients= -9.2729929822D-03
     Exponent=  6.1306894736D+01 Coefficients= -6.6547669241D-02
     Exponent=  1.9103729887D+01 Coefficients= -2.4828595903D-01
     Exponent=  6.6567720378D+00 Coefficients= -4.8703847402D-01
     Exponent=  2.3959635161D+00 Coefficients= -3.9337850312D-01
 P 1 1.00
     Exponent=  6.1776161679D-01 Coefficients=  1.0000000000D+00
 P 1 1.00
     Exponent=  1.6993376871D-01 Coefficients=  1.0000000000D+00
 D 1 1.00
     Exponent=  5.5000000000D-01 Coefficients=  1.0000000000D+00
 ****
 Centers:      58
 S 5 1.00
     Exponent=  9.5169767000D+04 Coefficients=  2.2000000000D-05
     Exponent=  1.5488403000D+04 Coefficients=  1.4500000000D-04
     Exponent=  3.7762335000D+03 Coefficients=  6.5100000000D-04
     Exponent=  1.0790501000D+03 Coefficients=  2.0380000000D-03
     Exponent=  2.6895380000D+02 Coefficients=  5.1270000000D-03
 S 1 1.00
     Exponent=  6.3467900000D+01 Coefficients=  1.0000000000D+00
 S 1 1.00
     Exponent=  4.5133200000D+01 Coefficients=  1.0000000000D+00
 S 1 1.00
     Exponent=  2.1456800000D+01 Coefficients=  1.0000000000D+00
 S 1 1.00
     Exponent=  5.3483000000D+00 Coefficients=  1.0000000000D+00
 S 1 1.00
     Exponent=  2.6778000000D+00 Coefficients=  1.0000000000D+00
 S 1 1.00
     Exponent=  1.0287000000D+00 Coefficients=  1.0000000000D+00
 S 1 1.00
     Exponent=  4.4080000000D-01 Coefficients=  1.0000000000D+00
 S 1 1.00
     Exponent=  7.9100000000D-02 Coefficients=  1.0000000000D+00
 S 1 1.00
     Exponent=  3.1300000000D-02 Coefficients=  1.0000000000D+00
 P 3 1.00
     Exponent=  1.2333733920D+01 Coefficients= -1.5313031066D-01
     Exponent=  1.1080331415D+01 Coefficients= -2.0300664852D-01
     Exponent=  2.0341747228D+00 Coefficients= -1.9458361263D-01
 P 6 1.00
     Exponent=  1.5005317313D+03 Coefficients= -1.0192569555D-03
     Exponent=  3.8239748937D+02 Coefficients= -5.9476212135D-03
     Exponent=  1.3299969628D+02 Coefficients= -1.6265160929D-02
     Exponent=  4.6110032419D+01 Coefficients= -3.5623845839D-02
     Exponent=  1.5583529011D+01 Coefficients=  2.3709171074D-01
     Exponent=  5.7856677022D+00 Coefficients= -3.0670977844D-01
 P 1 1.00
     Exponent=  3.7823361008D+00 Coefficients=  1.0000000000D+00
 P 1 1.00
     Exponent=  1.3682592248D+00 Coefficients=  1.0000000000D+00
 P 1 1.00
     Exponent=  5.7288205601D-01 Coefficients=  1.0000000000D+00
 P 1 1.00
     Exponent=  2.2793165135D-01 Coefficients=  1.0000000000D+00
 P 1 1.00
     Exponent=  8.1403917986D-02 Coefficients=  1.0000000000D+00
 P 1 1.00
     Exponent=  2.9091071778D-02 Coefficients=  1.0000000000D+00
 D 6 1.00
     Exponent=  4.8452750000D+02 Coefficients=  2.2860000000D-03
     Exponent=  1.4666550000D+02 Coefficients=  1.8629000000D-02
     Exponent=  5.6377900000D+01 Coefficients=  7.4088000000D-02
     Exponent=  2.3671100000D+01 Coefficients=  1.6155400000D-01
     Exponent=  9.4401000000D+00 Coefficients=  3.0809100000D-01
     Exponent=  4.3712000000D+00 Coefficients=  4.4833400000D-01
 D 1 1.00
     Exponent=  1.9580000000D+00 Coefficients=  1.0000000000D+00
 D 1 1.00
     Exponent=  7.2720000000D-01 Coefficients=  1.0000000000D+00
 D 1 1.00
     Exponent=  2.4600000000D-01 Coefficients=  1.0000000000D+00
 D 1 1.00
     Exponent=  7.4400000000D-02 Coefficients=  1.0000000000D+00
 F 5 1.00
     Exponent=  1.7515590000D+02 Coefficients=  4.1020000000D-03
     Exponent=  6.2890900000D+01 Coefficients=  3.9086000000D-02
     Exponent=  2.8362400000D+01 Coefficients=  1.4704400000D-01
     Exponent=  1.3247800000D+01 Coefficients=  2.7109200000D-01
     Exponent=  6.1440000000D+00 Coefficients=  3.4566500000D-01
 F 1 1.00
     Exponent=  2.7623000000D+00 Coefficients=  1.0000000000D+00
 F 1 1.00
     Exponent=  1.1574000000D+00 Coefficients=  1.0000000000D+00
 F 1 1.00
     Exponent=  4.2440000000D-01 Coefficients=  1.0000000000D+00
 G 1 1.00
     Exponent=  7.0090000000D-01 Coefficients=  1.0000000000D+00
 ****
 ======================================================================================================
                                       Pseudopotential Parameters
 ======================================================================================================
  Center     Atomic      Valence      Angular      Power
  Number     Number     Electrons     Momentum     of R      Exponent        Coefficient   SO-Coeffient
 ======================================================================================================
    1          6
                                   No pseudopotential on this center.
    2          6
                                   No pseudopotential on this center.
    3          6
                                   No pseudopotential on this center.
    4          6
                                   No pseudopotential on this center.
    5          6
                                   No pseudopotential on this center.
    6          6
                                   No pseudopotential on this center.
    7          6
                                   No pseudopotential on this center.
    8          6
                                   No pseudopotential on this center.
    9          6
                                   No pseudopotential on this center.
   10          1
                                   No pseudopotential on this center.
   11          1
                                   No pseudopotential on this center.
   12          1
                                   No pseudopotential on this center.
   13          1
                                   No pseudopotential on this center.
   14          1
                                   No pseudopotential on this center.
   15          8
                                   No pseudopotential on this center.
   16          8
                                   No pseudopotential on this center.
   17          8
                                   No pseudopotential on this center.
   18          8
                                   No pseudopotential on this center.
   19          8
                                   No pseudopotential on this center.
   20         16
                                   No pseudopotential on this center.
   21         16
                                   No pseudopotential on this center.
   22         16
                                   No pseudopotential on this center.
   23          8
                                   No pseudopotential on this center.
   24          8
                                   No pseudopotential on this center.
   25          8
                                   No pseudopotential on this center.
   26          8
                                   No pseudopotential on this center.
   27          8
                                   No pseudopotential on this center.
   28          8
                                   No pseudopotential on this center.
   29          6
                                   No pseudopotential on this center.
   30          6
                                   No pseudopotential on this center.
   31          6
                                   No pseudopotential on this center.
   32          9
                                   No pseudopotential on this center.
   33          9
                                   No pseudopotential on this center.
   34          9
                                   No pseudopotential on this center.
   35          9
                                   No pseudopotential on this center.
   36          9
                                   No pseudopotential on this center.
   37          9
                                   No pseudopotential on this center.
   38          9
                                   No pseudopotential on this center.
   39          9
                                   No pseudopotential on this center.
   40          9
                                   No pseudopotential on this center.
   41          6
                                   No pseudopotential on this center.
   42          1
                                   No pseudopotential on this center.
   43          6
                                   No pseudopotential on this center.
   44          6
                                   No pseudopotential on this center.
   45          6
                                   No pseudopotential on this center.
   46          6
                                   No pseudopotential on this center.
   47          6
                                   No pseudopotential on this center.
   48          6
                                   No pseudopotential on this center.
   49          1
                                   No pseudopotential on this center.
   50          1
                                   No pseudopotential on this center.
   51          1
                                   No pseudopotential on this center.
   52          7
                                   No pseudopotential on this center.
   53          7
                                   No pseudopotential on this center.
   54          7
                                   No pseudopotential on this center.
   55          7
                                   No pseudopotential on this center.
   56          6
                                   No pseudopotential on this center.
   57          1
                                   No pseudopotential on this center.
   58         71           43
                                      H and up 
                                                     2        1.0000000        0.00000000    0.00000000
                                      S - H
                                                     2       35.1620970      989.99558400    0.00000000
                                      P - H
                                                     2       19.4644020      278.86565200    0.00000000
                                      D - H
                                                     2       10.0068650       71.00917800    0.00000000
                                      F - H
                                                     2       23.5179320      -47.40589000    0.00000000
                                      G - H
                                                     2       29.4122380      -35.55714600    0.00000000
   59          8
                                   No pseudopotential on this center.
   60          6
                                   No pseudopotential on this center.
   61          1
                                   No pseudopotential on this center.
   62          1
                                   No pseudopotential on this center.
   63          1
                                   No pseudopotential on this center.
   64          6
                                   No pseudopotential on this center.
   65          1
                                   No pseudopotential on this center.
   66          1
                                   No pseudopotential on this center.
   67          1
                                   No pseudopotential on this center.
 ======================================================================================================
 Ernie: Thresh=  0.10000D-02 Tol=  0.10000D-05 Strict=F.
 There are   961 symmetry adapted cartesian basis functions of A   symmetry.
 There are   888 symmetry adapted basis functions of A   symmetry.
   888 basis functions,  1612 primitive gaussians,   961 cartesian basis functions
   222 alpha electrons      222 beta electrons
       nuclear repulsion energy     11034.3110780127 Hartrees.
 IExCor= 7252 DFT=T Ex+Corr=MN15 ExCW=0 ScaHFX=  0.440000
 ScaDFX=  1.000000  1.000000  1.000000  1.000000 ScalE2=  1.000000  1.000000
 IRadAn=      5 IRanWt=     -1 IRanGd=            0 ICorTp=0 IEmpDi=  4
 NAtoms=   67 NActive=   67 NUniq=   67 SFac= 1.00D+00 NAtFMM=   60 NAOKFM=T Big=T
 Integral buffers will be    131072 words long.
 Raffenetti 2 integral format.
 Two-electron integral symmetry is turned on.
 Force inversion solution in PCM.
 ------------------------------------------------------------------------------
 Polarizable Continuum Model (PCM)
 =================================
 Model                : PCM.
 Atomic radii         : SMD-Coulomb.
 Polarization charges : Total charges.
 Charge compensation  : None.
 Solution method      : Matrix inversion.
 Cavity type          : VdW (van der Waals Surface) (Alpha=1.000).
 Cavity algorithm     : GePol (No added spheres)
                        Default sphere list used, NSphG=   67.
                        Lebedev-Laikov grids with approx.  5.0 points / Ang**2.
                        Smoothing algorithm: York/Karplus (Gamma=1.0000).
                        Polarization charges: spherical gaussians, with
                                              point-specific exponents (IZeta= 3).
                        Self-potential: point-specific (ISelfS= 7).
                        Self-field    : sphere-specific E.n sum rule (ISelfD= 2).
 1st derivatives      : Analytical E(r).r(x)/FMM algorithm (CHGder, D1EAlg=3).
                        Cavity 1st derivative terms included.
 2nd derivatives      : Analytical E(r).r(xy)/FMM algorithm (CHGder, D2EAlg=3).
                        Cavity 2nd derivative terms included.
 Solvent              : DiChloroEthane, Eps=  10.125000 Eps(inf)=   2.087447
 ------------------------------------------------------------------------------
 GePol: Number of generator spheres                  =      67
 GePol: Total number of spheres                      =      67
 GePol: Number of exposed spheres                    =      66 ( 98.51%)
 GePol: Number of points                             =    4922
 GePol: Average weight of points                     =       0.13
 GePol: Minimum weight of points                     =   0.16D-10
 GePol: Maximum weight of points                     =    0.21501
 GePol: Number of points with low weight             =     289
 GePol: Fraction of low-weight points (<1% of avg)   =       5.87%
 GePol: Cavity surface area                          =    623.306 Ang**2
 GePol: Cavity volume                                =    755.850 Ang**3
 ------------------------------------------------------------------------------
 Atomic radii for non-electrostatic terms: SMD-CDS.
 ------------------------------------------------------------------------------
 PCM non-electrostatic energy =         0.0028600047 Hartrees.
 Nuclear repulsion after PCM non-electrostatic terms =    11034.3139380174 Hartrees.
 Leave Link  301 at Sat May  3 00:31:00 2025, MaxMem= 82678120448 cpu:               6.8 elap:               0.3
 (Enter /sysapps/ubuntu-applications/gaussian-new/avx/g16/l302.exe)
 NPDir=0 NMtPBC=     1 NCelOv=     1 NCel=       1 NClECP=     1 NCelD=      1
         NCelK=      1 NCelE2=     1 NClLst=     1 CellRange=     0.0.
 One-electron integrals computed using PRISM.
 One-electron integral symmetry used in STVInt
   1 Symmetry operations used in ECPInt.
 ECPInt:  NShTT=   73153 NPrTT=  279412 LenC2=   57021 LenP2D=  133025.
 LDataN:  DoStor=T MaxTD1= 9 Len=  602
 NBasis=   888 RedAO= T EigKep=  2.76D-04  NBF=   888
 NBsUse=   888 1.00D-06 EigRej= -1.00D+00 NBFU=   888
 Precomputing XC quadrature grid using
 IXCGrd= 4 IRadAn=           5 IRanWt=          -1 IRanGd=           0 AccXCQ= 0.00D+00.
 Defaulting to unpruned grid for atomic number  71.
 Generated NRdTot=       0 NPtTot=           0 NUsed=           0 NTot=          32
 NSgBfM=   912   910   911   911   912 MxSgAt=    67 MxSgA2=    67.
 Leave Link  302 at Sat May  3 00:31:03 2025, MaxMem= 82678120448 cpu:              54.9 elap:               2.3
 (Enter /sysapps/ubuntu-applications/gaussian-new/avx/g16/l303.exe)
 DipDrv:  MaxL=1.
 Leave Link  303 at Sat May  3 00:31:03 2025, MaxMem= 82678120448 cpu:               5.5 elap:               0.3
 (Enter /sysapps/ubuntu-applications/gaussian-new/avx/g16/l401.exe)
 ExpMin= 2.91D-02 ExpMax= 9.52D+04 ExpMxC= 1.55D+04 IAcc=3 IRadAn=         5 AccDes= 0.00D+00
 Harris functional with IExCor= 1009 and IRadAn=       5 diagonalized for initial guess.
 HarFok:  IExCor= 1009 AccDes= 0.00D+00 IRadAn=         5 IDoV= 1 UseB2=F ITyADJ=14
 ICtDFT=  3500011 ScaDFX=  1.000000  1.000000  1.000000  1.000000
 Defaulting to unpruned grid for atomic number  71.
 FoFCou: FMM=F IPFlag=           0 FMFlag=      100000 FMFlg1=        2001
         NFxFlg=           0 DoJE=T BraDBF=F KetDBF=T FulRan=T
         wScrn=  0.000000 ICntrl=       500 IOpCl=  0 I1Cent=   200000004 NGrid=           0
         NMat0=    1 NMatS0=      1 NMatT0=    0 NMatD0=    1 NMtDS0=    0 NMtDT0=    0
 Petite list used in FoFCou.
 Harris En= -5296.73460231781    
 JPrj=0 DoOrth=F DoCkMO=F.
 Initial guess <Sx>= 0.0000 <Sy>= 0.0000 <Sz>= 0.0000 <S**2>=-0.0000 S=-0.0000
 Leave Link  401 at Sat May  3 00:31:09 2025, MaxMem= 82678120448 cpu:             131.3 elap:               5.5
 (Enter /sysapps/ubuntu-applications/gaussian-new/avx/g16/l502.exe)
 Integral symmetry usage will be decided dynamically.
 UHF open shell SCF:
 Using DIIS extrapolation, IDIIS=  1040.
 NGot= 82678120448 LenX= 82676240119 LenY= 82675315637
 Requested convergence on RMS density matrix=1.00D-08 within 500 cycles.
 Requested convergence on MAX density matrix=1.00D-06.
 Requested convergence on             energy=1.00D-06.
 No special actions if energy rises.
 Fock matrices will be formed incrementally for  20 cycles.

 Cycle   1  Pass 1  IDiag  1:
 FoFJK:  IHMeth= 1 ICntrl=       0 DoSepK=F KAlg= 0 I1Cent=           0 FoldK=F
 IRaf= 870000000 NMat=       1 IRICut=       1 DoRegI=T DoRafI=F ISym2E= 0 IDoP0=0 IntGTp=1.
 FoFCou: FMM=T IPFlag=           0 FMFlag=      100000 FMFlg1=        2001
         NFxFlg=           0 DoJE=F BraDBF=F KetDBF=F FulRan=T
         wScrn=  0.000000 ICntrl=         0 IOpCl=  1 I1Cent=           0 NGrid=           0
         NMat0=    1 NMatS0=      1 NMatT0=    0 NMatD0=    1 NMtDS0=    0 NMtDT0=    0
 Symmetry not used in FoFCou.
 FMM levels:  10  Number of levels for PrismC:   9
 Defaulting to unpruned grid for atomic number  71.
 Defaulting to unpruned grid for atomic number  71.
 Defaulting to unpruned grid for atomic number  71.
 Defaulting to unpruned grid for atomic number  71.
 Defaulting to unpruned grid for atomic number  71.
 Defaulting to unpruned grid for atomic number  71.
 Defaulting to unpruned grid for atomic number  71.
 Defaulting to unpruned grid for atomic number  71.
 Defaulting to unpruned grid for atomic number  71.
 Defaulting to unpruned grid for atomic number  71.
 Defaulting to unpruned grid for atomic number  71.
 Defaulting to unpruned grid for atomic number  71.
 Defaulting to unpruned grid for atomic number  71.
 Defaulting to unpruned grid for atomic number  71.
 Defaulting to unpruned grid for atomic number  71.
 Defaulting to unpruned grid for atomic number  71.
 Defaulting to unpruned grid for atomic number  71.
 Defaulting to unpruned grid for atomic number  71.
 Defaulting to unpruned grid for atomic number  71.
 Defaulting to unpruned grid for atomic number  71.
 Defaulting to unpruned grid for atomic number  71.
 Defaulting to unpruned grid for atomic number  71.
 Defaulting to unpruned grid for atomic number  71.
 Defaulting to unpruned grid for atomic number  71.
 Inv3:  Mode=1 IEnd=    72678252.
 Iteration    1 A*A^-1 deviation from unit magnitude is 7.99D-15 for   4908.
 Iteration    1 A*A^-1 deviation from orthogonality  is 2.99D-15 for   3570   2280.
 Iteration    1 A^-1*A deviation from unit magnitude is 7.99D-15 for   4908.
 Iteration    1 A^-1*A deviation from orthogonality  is 2.97D-11 for   2711   2669.
 E= -5291.02775635661    
 DIIS: error= 2.29D-01 at cycle   1 NSaved=   1.
 NSaved= 1 IEnMin= 1 EnMin= -5291.02775635661     IErMin= 1 ErrMin= 2.29D-01
 ErrMax= 2.29D-01  0.00D+00 EMaxC= 1.00D-01 BMatC= 1.56D+02 BMatP= 1.56D+02
 IDIUse=3 WtCom= 0.00D+00 WtEn= 1.00D+00
 Coeff-Com:  0.100D+01
 Coeff-En:   0.100D+01
 Coeff:      0.100D+01
 Gap=     0.170 Goal=   None    Shift=    0.000
 Gap=     0.170 Goal=   None    Shift=    0.000
 GapD=    0.170 DampG=1.000 DampE=0.125 DampFc=0.1250 IDamp=-1.
 Damping current iteration by 1.25D-01
 RMSDP=8.70D-03 MaxDP=1.00D+00              OVMax= 9.92D-01

 Cycle   2  Pass 1  IDiag  1:
 RMSU=  1.08D-03    CP:  9.92D-01
 E= -5291.74323868416     Delta-E=       -0.715482327543 Rises=F Damp=T
 DIIS: error= 9.74D-02 at cycle   2 NSaved=   2.
 NSaved= 2 IEnMin= 2 EnMin= -5291.74323868416     IErMin= 2 ErrMin= 9.74D-02
 ErrMax= 9.74D-02  0.00D+00 EMaxC= 1.00D-01 BMatC= 3.24D+01 BMatP= 1.56D+02
 IDIUse=3 WtCom= 2.63D-02 WtEn= 9.74D-01
 Coeff-Com: -0.623D+00 0.162D+01
 Coeff-En:   0.372D+00 0.628D+00
 Coeff:      0.346D+00 0.654D+00
 Gap=     0.010 Goal=   None    Shift=    0.000
 Gap=     0.010 Goal=   None    Shift=    0.000
 RMSDP=3.14D-03 MaxDP=6.18D-01 DE=-7.15D-01 OVMax= 8.71D-01

 Cycle   3  Pass 1  IDiag  1:
 RMSU=  3.07D-03    CP:  9.66D-01  1.48D+00
 E= -5290.05245943904     Delta-E=        1.690779245120 Rises=F Damp=F
 DIIS: error= 2.51D-01 at cycle   3 NSaved=   3.
 NSaved= 3 IEnMin= 2 EnMin= -5291.74323868416     IErMin= 2 ErrMin= 9.74D-02
 ErrMax= 2.51D-01  0.00D+00 EMaxC= 1.00D-01 BMatC= 1.69D+02 BMatP= 3.24D+01
 IDIUse=2 WtCom= 0.00D+00 WtEn= 1.00D+00
 EnCoef did   100 forward-backward iterations
 Coeff-En:   0.523D+00 0.207D-01 0.456D+00
 Coeff:      0.523D+00 0.207D-01 0.456D+00
 Gap=     0.428 Goal=   None    Shift=    0.000
 Gap=     0.428 Goal=   None    Shift=    0.000
 RMSDP=2.31D-03 MaxDP=3.28D-01 DE= 1.69D+00 OVMax= 1.99D-01

 Cycle   4  Pass 1  IDiag  1:
 RMSU=  1.25D-03    CP:  9.74D-01  8.00D-01  4.18D-01
 E= -5295.71890949129     Delta-E=       -5.666450052251 Rises=F Damp=F
 DIIS: error= 3.47D-02 at cycle   4 NSaved=   4.
 NSaved= 4 IEnMin= 4 EnMin= -5295.71890949129     IErMin= 4 ErrMin= 3.47D-02
 ErrMax= 3.47D-02  0.00D+00 EMaxC= 1.00D-01 BMatC= 4.62D+00 BMatP= 3.24D+01
 IDIUse=3 WtCom= 6.53D-01 WtEn= 3.47D-01
 Coeff-Com:  0.325D+00-0.182D+00 0.134D+00 0.723D+00
 Coeff-En:   0.000D+00 0.000D+00 0.000D+00 0.100D+01
 Coeff:      0.212D+00-0.119D+00 0.877D-01 0.819D+00
 Gap=     0.175 Goal=   None    Shift=    0.000
 Gap=     0.175 Goal=   None    Shift=    0.000
 RMSDP=9.44D-04 MaxDP=7.72D-02 DE=-5.67D+00 OVMax= 9.48D-02

 Cycle   5  Pass 1  IDiag  1:
 RMSU=  5.22D-04    CP:  9.79D-01  7.84D-01  5.04D-01  4.12D-01
 E= -5295.83081913721     Delta-E=       -0.111909645919 Rises=F Damp=F
 DIIS: error= 2.40D-02 at cycle   5 NSaved=   5.
 NSaved= 5 IEnMin= 5 EnMin= -5295.83081913721     IErMin= 5 ErrMin= 2.40D-02
 ErrMax= 2.40D-02  0.00D+00 EMaxC= 1.00D-01 BMatC= 2.13D+00 BMatP= 4.62D+00
 IDIUse=3 WtCom= 7.60D-01 WtEn= 2.40D-01
 Coeff-Com:  0.103D+00-0.122D+00 0.110D-01 0.542D+00 0.466D+00
 Coeff-En:   0.000D+00 0.000D+00 0.000D+00 0.388D+00 0.612D+00
 Coeff:      0.784D-01-0.927D-01 0.834D-02 0.505D+00 0.501D+00
 Gap=     0.172 Goal=   None    Shift=    0.000
 Gap=     0.172 Goal=   None    Shift=    0.000
 RMSDP=4.92D-04 MaxDP=5.08D-02 DE=-1.12D-01 OVMax= 4.98D-02

 Cycle   6  Pass 1  IDiag  1:
 RMSU=  2.57D-04    CP:  9.77D-01  7.44D-01  4.61D-01  6.13D-01  4.19D-01
 E= -5295.98047003890     Delta-E=       -0.149650901692 Rises=F Damp=F
 DIIS: error= 6.91D-03 at cycle   6 NSaved=   6.
 NSaved= 6 IEnMin= 6 EnMin= -5295.98047003890     IErMin= 6 ErrMin= 6.91D-03
 ErrMax= 6.91D-03  0.00D+00 EMaxC= 1.00D-01 BMatC= 2.00D-01 BMatP= 2.13D+00
 IDIUse=3 WtCom= 9.31D-01 WtEn= 6.91D-02
 Coeff-Com:  0.266D-01-0.600D-01-0.106D-01 0.119D+00 0.264D+00 0.661D+00
 Coeff-En:   0.000D+00 0.000D+00 0.000D+00 0.000D+00 0.817D-01 0.918D+00
 Coeff:      0.247D-01-0.559D-01-0.991D-02 0.111D+00 0.252D+00 0.679D+00
 Gap=     0.168 Goal=   None    Shift=    0.000
 Gap=     0.168 Goal=   None    Shift=    0.000
 RMSDP=1.27D-04 MaxDP=1.27D-02 DE=-1.50D-01 OVMax= 1.63D-02

 Cycle   7  Pass 1  IDiag  1:
 RMSU=  6.18D-05    CP:  9.77D-01  7.66D-01  4.72D-01  6.07D-01  5.07D-01
                    CP:  6.43D-01
 E= -5295.99277014213     Delta-E=       -0.012300103230 Rises=F Damp=F
 DIIS: error= 3.33D-03 at cycle   7 NSaved=   7.
 NSaved= 7 IEnMin= 7 EnMin= -5295.99277014213     IErMin= 7 ErrMin= 3.33D-03
 ErrMax= 3.33D-03  0.00D+00 EMaxC= 1.00D-01 BMatC= 4.65D-02 BMatP= 2.00D-01
 IDIUse=3 WtCom= 9.67D-01 WtEn= 3.33D-02
 Coeff-Com:  0.207D-01-0.451D-01-0.868D-02 0.184D-02 0.864D-01 0.340D+00
 Coeff-Com:  0.605D+00
 Coeff-En:   0.000D+00 0.000D+00 0.000D+00 0.000D+00 0.000D+00 0.000D+00
 Coeff-En:   0.100D+01
 Coeff:      0.200D-01-0.436D-01-0.839D-02 0.178D-02 0.835D-01 0.329D+00
 Coeff:      0.618D+00
 Gap=     0.168 Goal=   None    Shift=    0.000
 Gap=     0.168 Goal=   None    Shift=    0.000
 RMSDP=4.83D-05 MaxDP=6.50D-03 DE=-1.23D-02 OVMax= 8.69D-03

 Cycle   8  Pass 1  IDiag  1:
 RMSU=  3.50D-05    CP:  9.77D-01  7.59D-01  4.71D-01  6.02D-01  5.10D-01
                    CP:  7.15D-01  5.89D-01
 E= -5295.99411861897     Delta-E=       -0.001348476844 Rises=F Damp=F
 DIIS: error= 3.10D-03 at cycle   8 NSaved=   8.
 NSaved= 8 IEnMin= 8 EnMin= -5295.99411861897     IErMin= 8 ErrMin= 3.10D-03
 ErrMax= 3.10D-03  0.00D+00 EMaxC= 1.00D-01 BMatC= 3.60D-02 BMatP= 4.65D-02
 IDIUse=3 WtCom= 9.69D-01 WtEn= 3.10D-02
 Coeff-Com:  0.196D-01-0.360D-01-0.568D-02-0.458D-01-0.177D-01 0.425D-01
 Coeff-Com:  0.448D+00 0.595D+00
 Coeff-En:   0.000D+00 0.000D+00 0.000D+00 0.000D+00 0.000D+00 0.000D+00
 Coeff-En:   0.840D-01 0.916D+00
 Coeff:      0.190D-01-0.349D-01-0.550D-02-0.444D-01-0.172D-01 0.411D-01
 Coeff:      0.437D+00 0.605D+00
 Gap=     0.169 Goal=   None    Shift=    0.000
 Gap=     0.169 Goal=   None    Shift=    0.000
 RMSDP=2.34D-05 MaxDP=2.90D-03 DE=-1.35D-03 OVMax= 4.56D-03

 Cycle   9  Pass 1  IDiag  1:
 RMSU=  1.09D-05    CP:  9.77D-01  7.59D-01  4.71D-01  5.98D-01  5.11D-01
                    CP:  7.18D-01  7.42D-01  5.02D-01
 E= -5295.99500554528     Delta-E=       -0.000886926304 Rises=F Damp=F
 DIIS: error= 2.60D-03 at cycle   9 NSaved=   9.
 NSaved= 9 IEnMin= 9 EnMin= -5295.99500554528     IErMin= 9 ErrMin= 2.60D-03
 ErrMax= 2.60D-03  0.00D+00 EMaxC= 1.00D-01 BMatC= 2.43D-02 BMatP= 3.60D-02
 IDIUse=3 WtCom= 9.74D-01 WtEn= 2.60D-02
 Coeff-Com:  0.161D-01-0.256D-01-0.316D-02-0.355D-01-0.483D-01-0.144D+00
 Coeff-Com: -0.148D+00 0.982D-01 0.129D+01
 Coeff-En:   0.000D+00 0.000D+00 0.000D+00 0.000D+00 0.000D+00 0.000D+00
 Coeff-En:   0.000D+00 0.000D+00 0.100D+01
 Coeff:      0.157D-01-0.250D-01-0.308D-02-0.346D-01-0.471D-01-0.141D+00
 Coeff:     -0.144D+00 0.957D-01 0.128D+01
 Gap=     0.168 Goal=   None    Shift=    0.000
 Gap=     0.168 Goal=   None    Shift=    0.000
 RMSDP=1.53D-05 MaxDP=2.19D-03 DE=-8.87D-04 OVMax= 1.60D-03

 Cycle  10  Pass 1  IDiag  1:
 RMSU=  8.50D-06    CP:  9.77D-01  7.58D-01  4.72D-01  5.91D-01  5.10D-01
                    CP:  7.33D-01  7.77D-01  6.70D-01  6.16D-01
 E= -5295.99558130527     Delta-E=       -0.000575759996 Rises=F Damp=F
 DIIS: error= 1.99D-03 at cycle  10 NSaved=  10.
 NSaved=10 IEnMin=10 EnMin= -5295.99558130527     IErMin=10 ErrMin= 1.99D-03
 ErrMax= 1.99D-03  0.00D+00 EMaxC= 1.00D-01 BMatC= 1.41D-02 BMatP= 2.43D-02
 IDIUse=3 WtCom= 9.80D-01 WtEn= 1.99D-02
 Coeff-Com:  0.781D-02-0.954D-02-0.828D-03-0.419D-02-0.347D-01-0.186D+00
 Coeff-Com: -0.549D+00-0.539D+00 0.986D+00 0.133D+01
 Coeff-En:   0.000D+00 0.000D+00 0.000D+00 0.000D+00 0.000D+00 0.000D+00
 Coeff-En:   0.000D+00 0.000D+00 0.000D+00 0.100D+01
 Coeff:      0.765D-02-0.935D-02-0.812D-03-0.410D-02-0.340D-01-0.182D+00
 Coeff:     -0.538D+00-0.528D+00 0.966D+00 0.132D+01
 Gap=     0.168 Goal=   None    Shift=    0.000
 Gap=     0.168 Goal=   None    Shift=    0.000
 RMSDP=1.84D-05 MaxDP=4.32D-03 DE=-5.76D-04 OVMax= 2.08D-03

 Cycle  11  Pass 1  IDiag  1:
 RMSU=  7.93D-06    CP:  9.77D-01  7.56D-01  4.73D-01  5.81D-01  5.09D-01
                    CP:  7.45D-01  8.40D-01  7.53D-01  1.29D+00  1.28D+00
 E= -5295.99622534365     Delta-E=       -0.000644038377 Rises=F Damp=F
 DIIS: error= 7.76D-04 at cycle  11 NSaved=  11.
 NSaved=11 IEnMin=11 EnMin= -5295.99622534365     IErMin=11 ErrMin= 7.76D-04
 ErrMax= 7.76D-04  0.00D+00 EMaxC= 1.00D-01 BMatC= 2.11D-03 BMatP= 1.41D-02
 IDIUse=3 WtCom= 9.92D-01 WtEn= 7.76D-03
 Coeff-Com:  0.231D-02-0.232D-02-0.344D-03 0.487D-02-0.829D-02-0.682D-01
 Coeff-Com: -0.267D+00-0.339D+00 0.187D+00 0.651D+00 0.839D+00
 Coeff-En:   0.000D+00 0.000D+00 0.000D+00 0.000D+00 0.000D+00 0.000D+00
 Coeff-En:   0.000D+00 0.000D+00 0.000D+00 0.000D+00 0.100D+01
 Coeff:      0.229D-02-0.230D-02-0.341D-03 0.483D-02-0.823D-02-0.677D-01
 Coeff:     -0.265D+00-0.336D+00 0.186D+00 0.646D+00 0.841D+00
 Gap=     0.167 Goal=   None    Shift=    0.000
 Gap=     0.167 Goal=   None    Shift=    0.000
 RMSDP=8.42D-06 MaxDP=2.02D-03 DE=-6.44D-04 OVMax= 6.77D-04

 Cycle  12  Pass 1  IDiag  1:
 RMSU=  4.64D-06    CP:  9.78D-01  7.55D-01  4.73D-01  5.77D-01  5.08D-01
                    CP:  7.48D-01  8.52D-01  7.82D-01  1.56D+00  1.71D+00
                    CP:  9.89D-01
 E= -5295.99632642106     Delta-E=       -0.000101077416 Rises=F Damp=F
 DIIS: error= 2.15D-04 at cycle  12 NSaved=  12.
 NSaved=12 IEnMin=12 EnMin= -5295.99632642106     IErMin=12 ErrMin= 2.15D-04
 ErrMax= 2.15D-04  0.00D+00 EMaxC= 1.00D-01 BMatC= 1.62D-04 BMatP= 2.11D-03
 IDIUse=3 WtCom= 9.98D-01 WtEn= 2.15D-03
 Coeff-Com:  0.358D-03-0.343D-03-0.183D-03 0.338D-02 0.160D-02-0.432D-02
 Coeff-Com: -0.466D-01-0.901D-01-0.720D-01 0.851D-01 0.450D+00 0.673D+00
 Coeff-En:   0.000D+00 0.000D+00 0.000D+00 0.000D+00 0.000D+00 0.000D+00
 Coeff-En:   0.000D+00 0.000D+00 0.000D+00 0.000D+00 0.000D+00 0.100D+01
 Coeff:      0.357D-03-0.342D-03-0.182D-03 0.337D-02 0.160D-02-0.431D-02
 Coeff:     -0.465D-01-0.899D-01-0.719D-01 0.849D-01 0.449D+00 0.674D+00
 Gap=     0.167 Goal=   None    Shift=    0.000
 Gap=     0.167 Goal=   None    Shift=    0.000
 RMSDP=3.23D-06 MaxDP=5.60D-04 DE=-1.01D-04 OVMax= 2.79D-04

 Cycle  13  Pass 1  IDiag  1:
 RMSU=  1.94D-06    CP:  9.78D-01  7.54D-01  4.73D-01  5.76D-01  5.07D-01
                    CP:  7.50D-01  8.55D-01  7.84D-01  1.59D+00  1.77D+00
                    CP:  1.22D+00  8.92D-01
 E= -5295.99633559393     Delta-E=       -0.000009172871 Rises=F Damp=F
 DIIS: error= 3.25D-05 at cycle  13 NSaved=  13.
 NSaved=13 IEnMin=13 EnMin= -5295.99633559393     IErMin=13 ErrMin= 3.25D-05
 ErrMax= 3.25D-05  0.00D+00 EMaxC= 1.00D-01 BMatC= 5.98D-06 BMatP= 1.62D-04
 IDIUse=1 WtCom= 1.00D+00 WtEn= 0.00D+00
 Coeff-Com: -0.681D-04 0.448D-04-0.574D-04 0.990D-03 0.205D-02 0.798D-02
 Coeff-Com:  0.166D-01 0.433D-02-0.640D-01-0.618D-01 0.106D+00 0.371D+00
 Coeff-Com:  0.617D+00
 Coeff:     -0.681D-04 0.448D-04-0.574D-04 0.990D-03 0.205D-02 0.798D-02
 Coeff:      0.166D-01 0.433D-02-0.640D-01-0.618D-01 0.106D+00 0.371D+00
 Coeff:      0.617D+00
 Gap=     0.167 Goal=   None    Shift=    0.000
 Gap=     0.167 Goal=   None    Shift=    0.000
 RMSDP=1.07D-06 MaxDP=1.03D-04 DE=-9.17D-06 OVMax= 1.71D-04

 Cycle  14  Pass 1  IDiag  1:
 RMSU=  7.03D-07    CP:  9.78D-01  7.54D-01  4.73D-01  5.76D-01  5.07D-01
                    CP:  7.50D-01  8.55D-01  7.81D-01  1.57D+00  1.79D+00
                    CP:  1.24D+00  1.01D+00  8.11D-01
 E= -5295.99633628078     Delta-E=       -0.000000686849 Rises=F Damp=F
 DIIS: error= 5.87D-06 at cycle  14 NSaved=  14.
 NSaved=14 IEnMin=14 EnMin= -5295.99633628078     IErMin=14 ErrMin= 5.87D-06
 ErrMax= 5.87D-06  0.00D+00 EMaxC= 1.00D-01 BMatC= 2.49D-07 BMatP= 5.98D-06
 IDIUse=1 WtCom= 1.00D+00 WtEn= 0.00D+00
 Coeff-Com: -0.611D-04 0.508D-04 0.247D-05-0.339D-04 0.598D-03 0.342D-02
 Coeff-Com:  0.108D-01 0.109D-01-0.136D-01-0.322D-01-0.683D-02 0.643D-01
 Coeff-Com:  0.227D+00 0.736D+00
 Coeff:     -0.611D-04 0.508D-04 0.247D-05-0.339D-04 0.598D-03 0.342D-02
 Coeff:      0.108D-01 0.109D-01-0.136D-01-0.322D-01-0.683D-02 0.643D-01
 Coeff:      0.227D+00 0.736D+00
 Gap=     0.167 Goal=   None    Shift=    0.000
 Gap=     0.167 Goal=   None    Shift=    0.000
 RMSDP=3.82D-07 MaxDP=4.17D-05 DE=-6.87D-07 OVMax= 1.42D-04

 Cycle  15  Pass 1  IDiag  1:
 RMSU=  2.40D-07    CP:  9.78D-01  7.54D-01  4.73D-01  5.76D-01  5.07D-01
                    CP:  7.50D-01  8.55D-01  7.80D-01  1.57D+00  1.77D+00
                    CP:  1.25D+00  1.04D+00  9.12D-01  1.01D+00
 E= -5295.99633633261     Delta-E=       -0.000000051825 Rises=F Damp=F
 DIIS: error= 5.64D-06 at cycle  15 NSaved=  15.
 NSaved=15 IEnMin=15 EnMin= -5295.99633633261     IErMin=15 ErrMin= 5.64D-06
 ErrMax= 5.64D-06  0.00D+00 EMaxC= 1.00D-01 BMatC= 1.23D-07 BMatP= 2.49D-07
 IDIUse=1 WtCom= 1.00D+00 WtEn= 0.00D+00
 Coeff-Com: -0.114D-04 0.662D-05 0.119D-04-0.169D-03-0.850D-04 0.113D-03
 Coeff-Com:  0.145D-02 0.338D-02 0.585D-02-0.330D-02-0.162D-01-0.315D-01
 Coeff-Com: -0.119D-01 0.267D+00 0.785D+00
 Coeff:     -0.114D-04 0.662D-05 0.119D-04-0.169D-03-0.850D-04 0.113D-03
 Coeff:      0.145D-02 0.338D-02 0.585D-02-0.330D-02-0.162D-01-0.315D-01
 Coeff:     -0.119D-01 0.267D+00 0.785D+00
 Gap=     0.167 Goal=   None    Shift=    0.000
 Gap=     0.167 Goal=   None    Shift=    0.000
 RMSDP=1.99D-07 MaxDP=1.36D-05 DE=-5.18D-08 OVMax= 8.33D-05

 Cycle  16  Pass 1  IDiag  1:
 RMSU=  1.02D-07    CP:  9.78D-01  7.54D-01  4.73D-01  5.76D-01  5.07D-01
                    CP:  7.50D-01  8.54D-01  7.79D-01  1.56D+00  1.77D+00
                    CP:  1.25D+00  1.05D+00  9.49D-01  1.17D+00  1.07D+00
 E= -5295.99633634685     Delta-E=       -0.000000014239 Rises=F Damp=F
 DIIS: error= 9.12D-07 at cycle  16 NSaved=  16.
 NSaved=16 IEnMin=16 EnMin= -5295.99633634685     IErMin=16 ErrMin= 9.12D-07
 ErrMax= 9.12D-07  0.00D+00 EMaxC= 1.00D-01 BMatC= 8.43D-09 BMatP= 1.23D-07
 IDIUse=1 WtCom= 1.00D+00 WtEn= 0.00D+00
 Coeff-Com:  0.913D-06-0.142D-05 0.660D-05-0.905D-04-0.128D-03-0.405D-03
 Coeff-Com: -0.703D-03 0.366D-03 0.525D-02 0.229D-02-0.725D-02-0.262D-01
 Coeff-Com: -0.412D-01 0.344D-01 0.411D+00 0.623D+00
 Coeff:      0.913D-06-0.142D-05 0.660D-05-0.905D-04-0.128D-03-0.405D-03
 Coeff:     -0.703D-03 0.366D-03 0.525D-02 0.229D-02-0.725D-02-0.262D-01
 Coeff:     -0.412D-01 0.344D-01 0.411D+00 0.623D+00
 Gap=     0.167 Goal=   None    Shift=    0.000
 Gap=     0.167 Goal=   None    Shift=    0.000
 RMSDP=7.91D-08 MaxDP=4.92D-06 DE=-1.42D-08 OVMax= 3.07D-05

 Cycle  17  Pass 1  IDiag  1:
 RMSU=  4.21D-08    CP:  9.78D-01  7.54D-01  4.73D-01  5.76D-01  5.07D-01
                    CP:  7.50D-01  8.54D-01  7.79D-01  1.56D+00  1.77D+00
                    CP:  1.25D+00  1.05D+00  9.62D-01  1.22D+00  1.24D+00
                    CP:  8.70D-01
 E= -5295.99633634912     Delta-E=       -0.000000002277 Rises=F Damp=F
 DIIS: error= 3.72D-07 at cycle  17 NSaved=  17.
 NSaved=17 IEnMin=17 EnMin= -5295.99633634912     IErMin=17 ErrMin= 3.72D-07
 ErrMax= 3.72D-07  0.00D+00 EMaxC= 1.00D-01 BMatC= 7.40D-10 BMatP= 8.43D-09
 IDIUse=1 WtCom= 1.00D+00 WtEn= 0.00D+00
 Coeff-Com:  0.329D-05-0.334D-05-0.737D-07-0.239D-05-0.334D-04-0.184D-03
 Coeff-Com: -0.582D-03-0.531D-03 0.979D-03 0.137D-02 0.666D-03-0.390D-02
 Coeff-Com: -0.144D-01-0.352D-01 0.241D-02 0.235D+00 0.815D+00
 Coeff:      0.329D-05-0.334D-05-0.737D-07-0.239D-05-0.334D-04-0.184D-03
 Coeff:     -0.582D-03-0.531D-03 0.979D-03 0.137D-02 0.666D-03-0.390D-02
 Coeff:     -0.144D-01-0.352D-01 0.241D-02 0.235D+00 0.815D+00
 Gap=     0.167 Goal=   None    Shift=    0.000
 Gap=     0.167 Goal=   None    Shift=    0.000
 RMSDP=3.83D-08 MaxDP=2.16D-06 DE=-2.28D-09 OVMax= 1.62D-05

 Cycle  18  Pass 1  IDiag  1:
 RMSU=  1.52D-08    CP:  9.78D-01  7.54D-01  4.73D-01  5.76D-01  5.07D-01
                    CP:  7.50D-01  8.54D-01  7.79D-01  1.56D+00  1.77D+00
                    CP:  1.25D+00  1.06D+00  9.67D-01  1.24D+00  1.31D+00
                    CP:  1.05D+00  1.01D+00
 E= -5295.99633634952     Delta-E=       -0.000000000391 Rises=F Damp=F
 DIIS: error= 3.68D-07 at cycle  18 NSaved=  18.
 NSaved=18 IEnMin=18 EnMin= -5295.99633634952     IErMin=18 ErrMin= 3.68D-07
 ErrMax= 3.68D-07  0.00D+00 EMaxC= 1.00D-01 BMatC= 5.67D-10 BMatP= 7.40D-10
 IDIUse=1 WtCom= 1.00D+00 WtEn= 0.00D+00
 Coeff-Com:  0.158D-05-0.155D-05-0.103D-05 0.121D-04 0.300D-05-0.320D-04
 Coeff-Com: -0.190D-03-0.319D-03-0.290D-03 0.270D-03 0.142D-02 0.193D-02
 Coeff-Com: -0.113D-02-0.198D-01-0.555D-01 0.271D-01 0.402D+00 0.644D+00
 Coeff:      0.158D-05-0.155D-05-0.103D-05 0.121D-04 0.300D-05-0.320D-04
 Coeff:     -0.190D-03-0.319D-03-0.290D-03 0.270D-03 0.142D-02 0.193D-02
 Coeff:     -0.113D-02-0.198D-01-0.555D-01 0.271D-01 0.402D+00 0.644D+00
 Gap=     0.167 Goal=   None    Shift=    0.000
 Gap=     0.167 Goal=   None    Shift=    0.000
 RMSDP=1.23D-08 MaxDP=7.97D-07 DE=-3.91D-10 OVMax= 5.26D-06

 Cycle  19  Pass 1  IDiag  1:
 RMSU=  6.35D-09    CP:  9.78D-01  7.54D-01  4.73D-01  5.76D-01  5.07D-01
                    CP:  7.50D-01  8.54D-01  7.79D-01  1.56D+00  1.77D+00
                    CP:  1.25D+00  1.06D+00  9.69D-01  1.25D+00  1.33D+00
                    CP:  1.09D+00  1.13D+00  8.58D-01
 E= -5295.99633634945     Delta-E=        0.000000000065 Rises=F Damp=F
 DIIS: error= 1.58D-07 at cycle  19 NSaved=  19.
 NSaved=19 IEnMin=18 EnMin= -5295.99633634952     IErMin=19 ErrMin= 1.58D-07
 ErrMax= 1.58D-07  0.00D+00 EMaxC= 1.00D-01 BMatC= 1.12D-10 BMatP= 5.67D-10
 IDIUse=1 WtCom= 1.00D+00 WtEn= 0.00D+00
 Coeff-Com:  0.725D-07 0.609D-07-0.469D-06 0.605D-05 0.796D-05 0.182D-04
 Coeff-Com:  0.134D-04-0.567D-04-0.323D-03-0.146D-03 0.541D-03 0.157D-02
 Coeff-Com:  0.194D-02-0.272D-02-0.272D-01-0.333D-01 0.396D-01 0.321D+00
 Coeff-Com:  0.699D+00
 Coeff:      0.725D-07 0.609D-07-0.469D-06 0.605D-05 0.796D-05 0.182D-04
 Coeff:      0.134D-04-0.567D-04-0.323D-03-0.146D-03 0.541D-03 0.157D-02
 Coeff:      0.194D-02-0.272D-02-0.272D-01-0.333D-01 0.396D-01 0.321D+00
 Coeff:      0.699D+00
 Gap=     0.167 Goal=   None    Shift=    0.000
 Gap=     0.167 Goal=   None    Shift=    0.000
 RMSDP=5.66D-09 MaxDP=5.09D-07 DE= 6.55D-11 OVMax= 2.01D-06

 Error on total polarization charges =  0.03411
 SCF Done:  E(UMN15) =  -5295.99633635     A.U. after   19 cycles
            NFock= 19  Conv=0.57D-08     -V/T= 2.0934
 <Sx>= 0.0000 <Sy>= 0.0000 <Sz>= 0.0000 <S**2>=-0.0000 S=-0.0000
 <L.S>=  0.00000000000    
 KE= 4.843419374177D+03 PE=-3.469170479804D+04 EE= 1.351797514950D+04
 SMD-CDS (non-electrostatic) energy       (kcal/mol) =       1.79
 (included in total energy above)
 Annihilation of the first spin contaminant:
 S**2 before annihilation    -0.0000,   after    -0.0000
 Leave Link  502 at Sat May  3 00:46:39 2025, MaxMem= 82678120448 cpu:           22098.9 elap:             929.4
 (Enter /sysapps/ubuntu-applications/gaussian-new/avx/g16/l801.exe)
 DoSCS=F DFT=T ScalE2(SS,OS)=  1.000000  1.000000
 Range of M.O.s used for correlation:     1   888
 NBasis=   888 NAE=   222 NBE=   222 NFC=     0 NFV=     0
 NROrb=    888 NOA=   222 NOB=   222 NVA=   666 NVB=   666

 **** Warning!!: The largest alpha MO coefficient is  0.12569107D+02


 **** Warning!!: The largest beta MO coefficient is  0.12569107D+02

 Leave Link  801 at Sat May  3 00:46:39 2025, MaxMem= 82678120448 cpu:               2.4 elap:               0.1
 (Enter /sysapps/ubuntu-applications/gaussian-new/avx/g16/l1101.exe)
 Using compressed storage, NAtomX=    67.
 Will process     68 centers per pass.
   1 Symmetry operations used in ECPInt.
 ECPInt:  NShTT=   73153 NPrTT=  279412 LenC2=   57021 LenP2D=  133025.
 LDataN:  DoStor=T MaxTD1=10 Len=  848
 Leave Link 1101 at Sat May  3 00:46:51 2025, MaxMem= 82678120448 cpu:             287.8 elap:              12.1
 (Enter /sysapps/ubuntu-applications/gaussian-new/avx/g16/l1102.exe)
 Symmetrizing basis deriv contribution to polar:
 IMax=3 JMax=2 DiffMx= 0.00D+00
 Leave Link 1102 at Sat May  3 00:46:53 2025, MaxMem= 82678120448 cpu:               6.1 elap:               0.3
 (Enter /sysapps/ubuntu-applications/gaussian-new/avx/g16/l1110.exe)
 Forming Gx(P) for the SCF density, NAtomX=    67.
 Integral derivatives from FoFJK, PRISM(SPDF).
 Do as many integral derivatives as possible in FoFJK.
 G2DrvN: MDV=   82678114550.
 G2DrvN: will do    68 centers at a time, making    1 passes.
 Calling FoFCou, ICntrl=  3107 FMM=T I1Cent=   0 AccDes= 0.00D+00.
 FoFJK:  IHMeth= 1 ICntrl=    3107 DoSepK=F KAlg= 0 I1Cent=           0 FoldK=F
 IRaf=         0 NMat=       1 IRICut=       1 DoRegI=T DoRafI=F ISym2E= 0 IDoP0=0 IntGTp=1.
 FoFCou: FMM=T IPFlag=           0 FMFlag=      100000 FMFlg1=        2001
         NFxFlg=           0 DoJE=F BraDBF=F KetDBF=F FulRan=T
         wScrn=  0.000000 ICntrl=      3107 IOpCl=  1 I1Cent=           0 NGrid=           0
         NMat0=    1 NMatS0=      1 NMatT0=    0 NMatD0=    1 NMtDS0=    0 NMtDT0=    0
 Symmetry not used in FoFCou.
 FMM levels:  10  Number of levels for PrismC:   9
 Defaulting to unpruned grid for atomic number  71.
 Defaulting to unpruned grid for atomic number  71.
 Defaulting to unpruned grid for atomic number  71.
 Defaulting to unpruned grid for atomic number  71.
 Defaulting to unpruned grid for atomic number  71.
 Defaulting to unpruned grid for atomic number  71.
 Defaulting to unpruned grid for atomic number  71.
 Defaulting to unpruned grid for atomic number  71.
 Defaulting to unpruned grid for atomic number  71.
 Defaulting to unpruned grid for atomic number  71.
 Defaulting to unpruned grid for atomic number  71.
 Defaulting to unpruned grid for atomic number  71.
 Defaulting to unpruned grid for atomic number  71.
 Defaulting to unpruned grid for atomic number  71.
 Defaulting to unpruned grid for atomic number  71.
 Defaulting to unpruned grid for atomic number  71.
 Defaulting to unpruned grid for atomic number  71.
 Defaulting to unpruned grid for atomic number  71.
 Defaulting to unpruned grid for atomic number  71.
 Defaulting to unpruned grid for atomic number  71.
 Defaulting to unpruned grid for atomic number  71.
 Defaulting to unpruned grid for atomic number  71.
 Defaulting to unpruned grid for atomic number  71.
 Defaulting to unpruned grid for atomic number  71.
 NEqPCM:  Using equilibrium solvation (IEInf=0, Eps=  10.1250, EpsInf=   2.0874)
 G2PCM: DoFxE=T DoFxN=T DoGrad=T DoDP/DQ/DG/TGxP=FFFF NFrqRd=   0 IEInf=0 SqF1=F DoCFld=F IF1Alg=4.
 GePol: Maximum number of non-zero 1st derivatives   =     263
 End of G2Drv F.D. properties file   721 does not exist.
 End of G2Drv F.D. properties file   722 does not exist.
 End of G2Drv F.D. properties file   788 does not exist.
 Leave Link 1110 at Sat May  3 01:30:51 2025, MaxMem= 82678120448 cpu:           63246.1 elap:            2637.7
 (Enter /sysapps/ubuntu-applications/gaussian-new/avx/g16/l1002.exe)
 Minotr:  UHF open shell wavefunction.
          IDoAtm=11111111111111111111111111111111111111111111111111
          IDoAtm=11111111111111111
 NEqPCM:  Using equilibrium solvation (IEInf=0, Eps=  10.1250, EpsInf=   2.0874)
          Direct CPHF calculation.
          Differentiating once with respect to electric field.
                with respect to dipole field.
          Differentiating once with respect to nuclear coordinates.
          Requested convergence is 1.0D-08 RMS, and 1.0D-07 maximum.
          Secondary convergence is 1.0D-12 RMS, and 1.0D-12 maximum.
          NewPWx=T KeepS1=F KeepF1=F KeepIn=T MapXYZ=F SortEE=F KeepMc=T.
 Defaulting to unpruned grid for atomic number  71.
        20723 words used for storage of precomputed grid.
 Two-electron integrals replicated using symmetry.
          MDV=   82678120448 using IRadAn=       1.
          Solving linear equations simultaneously, MaxMat=      72.
 FoF2E skips out because all densities are zero.
 CalDSu exits because no D1Ps are significant.
 FoFJK:  IHMeth= 1 ICntrl=       0 DoSepK=F KAlg= 0 I1Cent=           0 FoldK=F
 IRaf= 820000000 NMat=      72 IRICut=       1 DoRegI=T DoRafI=F ISym2E= 2 IDoP0=3 IntGTp=3.
 Defaulting to unpruned grid for atomic number  71.
 Defaulting to unpruned grid for atomic number  71.
 Defaulting to unpruned grid for atomic number  71.
 Defaulting to unpruned grid for atomic number  71.
 Defaulting to unpruned grid for atomic number  71.
 Defaulting to unpruned grid for atomic number  71.
 Defaulting to unpruned grid for atomic number  71.
 Defaulting to unpruned grid for atomic number  71.
 Defaulting to unpruned grid for atomic number  71.
 Defaulting to unpruned grid for atomic number  71.
 Defaulting to unpruned grid for atomic number  71.
 Defaulting to unpruned grid for atomic number  71.
 Defaulting to unpruned grid for atomic number  71.
 Defaulting to unpruned grid for atomic number  71.
 Defaulting to unpruned grid for atomic number  71.
 Defaulting to unpruned grid for atomic number  71.
 Defaulting to unpruned grid for atomic number  71.
 Defaulting to unpruned grid for atomic number  71.
 Defaulting to unpruned grid for atomic number  71.
 Defaulting to unpruned grid for atomic number  71.
 Defaulting to unpruned grid for atomic number  71.
 Defaulting to unpruned grid for atomic number  71.
 Defaulting to unpruned grid for atomic number  71.
 Defaulting to unpruned grid for atomic number  71.
          There are   204 degrees of freedom in the 1st order CPHF.  IDoFFX=6 NUNeed=     3.
    203 vectors produced by pass  0 Test12= 2.96D-13 1.00D-09 XBig12= 6.99D+02 8.70D+00.
 AX will form    72 AO Fock derivatives at one time.
    201 vectors produced by pass  1 Test12= 2.96D-13 1.00D-09 XBig12= 9.52D+01 8.37D-01.
    201 vectors produced by pass  2 Test12= 2.96D-13 1.00D-09 XBig12= 3.66D+00 1.24D-01.
    201 vectors produced by pass  3 Test12= 2.96D-13 1.00D-09 XBig12= 5.40D-02 1.31D-02.
    201 vectors produced by pass  4 Test12= 2.96D-13 1.00D-09 XBig12= 4.39D-04 8.17D-04.
    201 vectors produced by pass  5 Test12= 2.96D-13 1.00D-09 XBig12= 2.41D-06 5.93D-05.
    165 vectors produced by pass  6 Test12= 2.96D-13 1.00D-09 XBig12= 1.02D-08 3.96D-06.
     61 vectors produced by pass  7 Test12= 2.96D-13 1.00D-09 XBig12= 4.54D-11 3.69D-07.
      3 vectors produced by pass  8 Test12= 2.96D-13 1.00D-09 XBig12= 2.34D-13 2.45D-08.
      3 vectors produced by pass  9 Test12= 2.96D-13 1.00D-09 XBig12= 1.98D-15 2.44D-09.
      2 vectors produced by pass 10 Test12= 2.96D-13 1.00D-09 XBig12= 1.07D-14 4.73D-09.
 InvSVY:  IOpt=1 It=  1 EMax= 2.13D-14
 Solved reduced A of dimension  1442 with   204 vectors.
 FullF1:  Do perturbations      1 to       3.
 Isotropic polarizability for W=    0.000000      477.42 Bohr**3.
 End of Minotr F.D. properties file   721 does not exist.
 End of Minotr F.D. properties file   722 does not exist.
 End of Minotr F.D. properties file   788 does not exist.
 Leave Link 1002 at Sat May  3 03:25:59 2025, MaxMem= 82678120448 cpu:          165463.5 elap:            6905.1
 (Enter /sysapps/ubuntu-applications/gaussian-new/avx/g16/l601.exe)
 Copying SCF densities to generalized density rwf, IOpCl= 1 IROHF=0.

 **********************************************************************

            Population analysis using the SCF density.

 **********************************************************************

 Orbital symmetries:
 Alpha Orbitals:
       Occupied  (A) (A) (A) (A) (A) (A) (A) (A) (A) (A) (A) (A)
                 (A) (A) (A) (A) (A) (A) (A) (A) (A) (A) (A) (A)
                 (A) (A) (A) (A) (A) (A) (A) (A) (A) (A) (A) (A)
                 (A) (A) (A) (A) (A) (A) (A) (A) (A) (A) (A) (A)
                 (A) (A) (A) (A) (A) (A) (A) (A) (A) (A) (A) (A)
                 (A) (A) (A) (A) (A) (A) (A) (A) (A) (A) (A) (A)
                 (A) (A) (A) (A) (A) (A) (A) (A) (A) (A) (A) (A)
                 (A) (A) (A) (A) (A) (A) (A) (A) (A) (A) (A) (A)
                 (A) (A) (A) (A) (A) (A) (A) (A) (A) (A) (A) (A)
                 (A) (A) (A) (A) (A) (A) (A) (A) (A) (A) (A) (A)
                 (A) (A) (A) (A) (A) (A) (A) (A) (A) (A) (A) (A)
                 (A) (A) (A) (A) (A) (A) (A) (A) (A) (A) (A) (A)
                 (A) (A) (A) (A) (A) (A) (A) (A) (A) (A) (A) (A)
                 (A) (A) (A) (A) (A) (A) (A) (A) (A) (A) (A) (A)
                 (A) (A) (A) (A) (A) (A) (A) (A) (A) (A) (A) (A)
                 (A) (A) (A) (A) (A) (A) (A) (A) (A) (A) (A) (A)
                 (A) (A) (A) (A) (A) (A) (A) (A) (A) (A) (A) (A)
                 (A) (A) (A) (A) (A) (A) (A) (A) (A) (A) (A) (A)
                 (A) (A) (A) (A) (A) (A)
       Virtual   (A) (A) (A) (A) (A) (A) (A) (A) (A) (A) (A) (A)
                 (A) (A) (A) (A) (A) (A) (A) (A) (A) (A) (A) (A)
                 (A) (A) (A) (A) (A) (A) (A) (A) (A) (A) (A) (A)
                 (A) (A) (A) (A) (A) (A) (A) (A) (A) (A) (A) (A)
                 (A) (A) (A) (A) (A) (A) (A) (A) (A) (A) (A) (A)
                 (A) (A) (A) (A) (A) (A) (A) (A) (A) (A) (A) (A)
                 (A) (A) (A) (A) (A) (A) (A) (A) (A) (A) (A) (A)
                 (A) (A) (A) (A) (A) (A) (A) (A) (A) (A) (A) (A)
                 (A) (A) (A) (A) (A) (A) (A) (A) (A) (A) (A) (A)
                 (A) (A) (A) (A) (A) (A) (A) (A) (A) (A) (A) (A)
                 (A) (A) (A) (A) (A) (A) (A) (A) (A) (A) (A) (A)
                 (A) (A) (A) (A) (A) (A) (A) (A) (A) (A) (A) (A)
                 (A) (A) (A) (A) (A) (A) (A) (A) (A) (A) (A) (A)
                 (A) (A) (A) (A) (A) (A) (A) (A) (A) (A) (A) (A)
                 (A) (A) (A) (A) (A) (A) (A) (A) (A) (A) (A) (A)
                 (A) (A) (A) (A) (A) (A) (A) (A) (A) (A) (A) (A)
                 (A) (A) (A) (A) (A) (A) (A) (A) (A) (A) (A) (A)
                 (A) (A) (A) (A) (A) (A) (A) (A) (A) (A) (A) (A)
                 (A) (A) (A) (A) (A) (A) (A) (A) (A) (A) (A) (A)
                 (A) (A) (A) (A) (A) (A) (A) (A) (A) (A) (A) (A)
                 (A) (A) (A) (A) (A) (A) (A) (A) (A) (A) (A) (A)
                 (A) (A) (A) (A) (A) (A) (A) (A) (A) (A) (A) (A)
                 (A) (A) (A) (A) (A) (A) (A) (A) (A) (A) (A) (A)
                 (A) (A) (A) (A) (A) (A) (A) (A) (A) (A) (A) (A)
                 (A) (A) (A) (A) (A) (A) (A) (A) (A) (A) (A) (A)
                 (A) (A) (A) (A) (A) (A) (A) (A) (A) (A) (A) (A)
                 (A) (A) (A) (A) (A) (A) (A) (A) (A) (A) (A) (A)
                 (A) (A) (A) (A) (A) (A) (A) (A) (A) (A) (A) (A)
                 (A) (A) (A) (A) (A) (A) (A) (A) (A) (A) (A) (A)
                 (A) (A) (A) (A) (A) (A) (A) (A) (A) (A) (A) (A)
                 (A) (A) (A) (A) (A) (A) (A) (A) (A) (A) (A) (A)
                 (A) (A) (A) (A) (A) (A) (A) (A) (A) (A) (A) (A)
                 (A) (A) (A) (A) (A) (A) (A) (A) (A) (A) (A) (A)
                 (A) (A) (A) (A) (A) (A) (A) (A) (A) (A) (A) (A)
                 (A) (A) (A) (A) (A) (A) (A) (A) (A) (A) (A) (A)
                 (A) (A) (A) (A) (A) (A) (A) (A) (A) (A) (A) (A)
                 (A) (A) (A) (A) (A) (A) (A) (A) (A) (A) (A) (A)
                 (A) (A) (A) (A) (A) (A) (A) (A) (A) (A) (A) (A)
                 (A) (A) (A) (A) (A) (A) (A) (A) (A) (A) (A) (A)
                 (A) (A) (A) (A) (A) (A) (A) (A) (A) (A) (A) (A)
                 (A) (A) (A) (A) (A) (A) (A) (A) (A) (A) (A) (A)
                 (A) (A) (A) (A) (A) (A) (A) (A) (A) (A) (A) (A)
                 (A) (A) (A) (A) (A) (A) (A) (A) (A) (A) (A) (A)
                 (A) (A) (A) (A) (A) (A) (A) (A) (A) (A) (A) (A)
                 (A) (A) (A) (A) (A) (A) (A) (A) (A) (A) (A) (A)
                 (A) (A) (A) (A) (A) (A) (A) (A) (A) (A) (A) (A)
                 (A) (A) (A) (A) (A) (A) (A) (A) (A) (A) (A) (A)
                 (A) (A) (A) (A) (A) (A) (A) (A) (A) (A) (A) (A)
                 (A) (A) (A) (A) (A) (A) (A) (A) (A) (A) (A) (A)
                 (A) (A) (A) (A) (A) (A) (A) (A) (A) (A) (A) (A)
                 (A) (A) (A) (A) (A) (A) (A) (A) (A) (A) (A) (A)
                 (A) (A) (A) (A) (A) (A) (A) (A) (A) (A) (A) (A)
                 (A) (A) (A) (A) (A) (A) (A) (A) (A) (A) (A) (A)
                 (A) (A) (A) (A) (A) (A) (A) (A) (A) (A) (A) (A)
                 (A) (A) (A) (A) (A) (A) (A) (A) (A) (A) (A) (A)
                 (A) (A) (A) (A) (A) (A)
 Beta  Orbitals:
       Occupied  (A) (A) (A) (A) (A) (A) (A) (A) (A) (A) (A) (A)
                 (A) (A) (A) (A) (A) (A) (A) (A) (A) (A) (A) (A)
                 (A) (A) (A) (A) (A) (A) (A) (A) (A) (A) (A) (A)
                 (A) (A) (A) (A) (A) (A) (A) (A) (A) (A) (A) (A)
                 (A) (A) (A) (A) (A) (A) (A) (A) (A) (A) (A) (A)
                 (A) (A) (A) (A) (A) (A) (A) (A) (A) (A) (A) (A)
                 (A) (A) (A) (A) (A) (A) (A) (A) (A) (A) (A) (A)
                 (A) (A) (A) (A) (A) (A) (A) (A) (A) (A) (A) (A)
                 (A) (A) (A) (A) (A) (A) (A) (A) (A) (A) (A) (A)
                 (A) (A) (A) (A) (A) (A) (A) (A) (A) (A) (A) (A)
                 (A) (A) (A) (A) (A) (A) (A) (A) (A) (A) (A) (A)
[...]
 -0.00004458,0.00003725,0.00002065,0.00029293,-0.00008482,0.00006354,0.
 00003904,0.00010304,0.00002935,0.00000241,-0.00000377,0.00000830,0.000
 06042,0.00002468,0.00006565,-0.00000554,0.00003137,0.00001276,-0.00071
 646,-0.00005195,0.00013307,0.00008986,0.00003166,0.00008735,-0.0008166
 0,0.00026602,-0.00033246,-0.00044254,-0.00147110,-0.00041916,0.0001079
 5,-0.00004557,-0.00001122,-0.00000893,0.00001776,0.00001299,-0.0002657
 5,-0.00009516,0.00008276,0.00027360,0.00005344,0.00036233,0.00002370,-
 0.00005218,-0.00001178,0.00000319,-0.00000480,-0.00001591,-0.00000759,
 -0.00000370,0.00000174,-0.00000655,0.00001525,-0.00000682,-0.14242115,
 -0.13544515,0.00350316,0.15141728,0.14734539,-0.00009957,0.00008190,0.
 00008463,0.00003357,0.00002831,-0.00003419,-0.00002340,-0.00001784,-0.
 00002778,-0.00002431,-0.00000621,0.00001002,0.00000506,-0.00000200,0.0
 0002065,-0.00000704,0.00000687,-0.00000136,-0.00122435,-0.00139852,-0.
 00044068,0.01851548,0.02072031,0.00478761,0.00004233,0.00022132,0.0001
 7486,-0.00002594,0.00001639,-0.00000158,-0.00000216,-0.00000054,-0.000
 00467,-0.00000144,-0.00000050,0.00000154,-0.00000007,0.00000119,0.0000
 0075,-0.00000765,-0.00001252,0.00001287,-0.00021772,-0.00001026,-0.000
 10446,0.00378130,-0.00413575,-0.00358471,0.00010137,-0.00002039,-0.000
 11314,0.00010120,-0.00013853,0.00005076,0.00008716,0.00016271,-0.00003
 058,-0.00015201,-0.00032440,0.00003259,-0.00012404,0.00000151,0.000160
 04,-0.00021104,0.00035713,-0.00033075,0.00013643,0.00021923,-0.0000143
 0,0.00006420,0.00010275,-0.00001722,0.00015725,0.00000395,-0.00010631,
 0.00002671,0.00001460,-0.00005615,0.00024133,-0.00048440,-0.00000984,-
 0.00003521,-0.00008856,0.00009514,-0.00005063,0.00012042,0.00008681,-0
 .00006300,0.00003283,0.00000878,-0.00006183,-0.00026358,0.00001660,-0.
 00000816,-0.00006660,-0.00001783,0.00001604,-0.00002211,-0.00002537,0.
 00006417,-0.00004091,0.00000283,0.00001695,-0.00000620,-0.00000393,0.0
 0001475,-0.00002546,-0.00001338,0.00003409,0.00000117,-0.00000135,0.00
 009531,0.00017230,-0.00000800,0.00003952,0.00008766,0.00006480,-0.0000
 3040,0.00005851,-0.00001265,0.00001277,0.00012013,-0.00038432,-0.00017
 777,0.00021716,-0.00014471,-0.00001387,0.00015350,0.00000608,-0.000235
 24,-0.00082070,-0.00047637,-0.00013161,0.00005055,-0.00016827,0.000151
 65,-0.00001534,0.00006045,0.00022019,0.00012427,0.00022524,-0.00015528
 ,-0.00003489,-0.00006404,0.00000224,0.00000394,-0.00000256,0.00001417,
 0.00004803,0.00002349,-0.00000191,0.00002749,0.00001896,-0.00007189,0.
 00042530,0.00031210,0.00011435,0.00001928,0.00012765,-0.00023203,-0.00
 017825,-0.00000706,-0.00026342,-0.00025435,-0.00058125,-0.00006655,0.0
 0018557,0.00013725,-0.00001364,0.00001108,0.00001204,-0.00104667,-0.00
 016361,0.00081357,0.00020643,-0.00086264,0.00031321,0.00006571,-0.0001
 1493,0.00002477,-0.00001033,-0.00000760,-0.00002153,-0.00002377,-0.000
 00271,0.00000103,-0.00002525,0.00000745,-0.00003359,0.00264778,0.00361
 273,-0.04732995,-0.00453450,-0.00219243,0.04336938,-0.00010775,-0.0000
 0058,0.00000914,0.00002126,0.00002580,-0.00005843,-0.00001538,-0.00000
 243,-0.00002215,-0.00002316,-0.00000720,-0.00000883,-0.00001109,0.0000
 0991,0.00002034,-0.00002922,-0.00000765,-0.00003097,-0.00037629,-0.000
 45722,-0.00030699,-0.01133878,0.01761689,0.00123402,-0.00032897,0.0001
 8500,0.00019623,-0.00000654,-0.00000490,0.00000289,-0.00000381,-0.0000
 0454,-0.00000585,-0.00000225,-0.00000296,-0.00000155,0.00000083,-0.000
 00150,-0.00000519,-0.00000711,-0.00001830,0.00003294,0.00009652,-0.000
 00915,-0.00005782,-0.00031905,-0.00248923,0.00306537,0.00004684,-0.000
 00471,-0.00003111,0.00004836,-0.00005994,0.00002806,0.00011648,-0.0001
 3593,-0.00018550,-0.00051559,0.00017906,0.00035244,-0.00005699,0.00002
 389,0.00008690,-0.00014246,0.00014953,-0.00018665,0.00019693,-0.000103
 23,-0.00007401,0.00027692,0.00009873,-0.00013953,0.00005863,-0.0000475
 3,-0.00006187,0.00001678,0.00000261,-0.00003209,0.00016879,-0.00024772
 ,0.00000281,0.00000012,-0.00003895,0.00005229,-0.00003730,0.00007169,0
 .00004596,-0.00004024,0.00002354,0.00000522,-0.00114884,-0.00171691,0.
 00083912,-0.00000156,-0.00003866,-0.00000930,0.00001078,-0.00001276,-0
 .00001467,0.00004029,-0.00002490,0.00000333,0.00001057,-0.00000523,-0.
 00000311,0.00001064,-0.00001899,-0.00000969,0.00002126,-0.00000059,-0.
 00000144,0.00026460,0.00060407,-0.00057175,0.00032374,0.00038071,0.000
 13005,-0.00001036,0.00035627,-0.00027613,0.00062096,0.00002120,-0.0009
 7656,-0.00029998,-0.00026539,-0.00114489,-0.00013191,0.00012771,0.0000
 4443,0.00012048,-0.00024359,-0.00015895,-0.00000085,0.00003808,0.00000
 975,0.00004236,-0.00001372,0.00001796,-0.00016229,0.00016578,-0.000039
 51,-0.00001299,-0.00002499,-0.00004856,-0.00000007,-0.00000048,0.00000
 318,-0.00000397,0.00005203,0.00002128,0.00000322,-0.00000532,-0.000002
 87,0.00039223,0.00035423,0.00024281,-0.00000863,-0.00000591,-0.0000035
 1,0.00036033,-0.00032546,0.00000763,-0.00038471,-0.00054937,-0.0002395
 0,-0.00008876,0.00007517,-0.00002116,0.00000875,-0.00001095,-0.0000168
 6,-0.00042539,0.00013637,0.00033602,-0.00023028,-0.00076076,-0.0004881
 7,0.00005640,-0.00008769,-0.00000772,-0.00001759,-0.00000012,-0.000010
 72,-0.00000906,-0.00000395,-0.00000294,0.00000086,0.00000132,0.0000009
 2,-0.06373161,0.09550115,-0.00202557,0.00813802,-0.02214399,-0.0015459
 9,0.07317068,-0.00017639,0.00006658,0.00012816,-0.00001563,-0.00004037
 ,0.00002474,0.00000063,0.00000333,0.00001197,0.00001215,0.00000321,0.0
 0002021,0.00000591,-0.00002470,0.00001351,0.00009464,0.00003544,0.0000
 8127,0.00058394,-0.00018955,-0.00055538,0.00283869,-0.00404950,-0.0011
 8085,-0.00002839,-0.00009536,-0.00007873,-0.00001136,0.00000035,-0.000
 00609,0.00000700,0.00000378,0.00000665,0.00000266,0.00000310,0.0000044
 6,0.00000314,0.00000122,0.00001472,0.00000396,0.00002221,-0.00001904,-
 0.00002211,0.00004771,0.00012519,-0.00284333,-0.00070667,-0.00006769,-
 0.00005361,0.00000776,0.00005096,-0.00003001,0.00005026,-0.00002233,-0
 .00005164,-0.00009402,-0.00000977,0.00006733,0.00013874,0.00004652,0.0
 0005890,0.00001979,-0.00004180,0.00005551,-0.00010365,0.00006975,-0.00
 003983,-0.00008818,-0.00003085,-0.00001793,-0.00002975,-0.00000621,-0.
 00004134,-0.00000857,0.00002258,-0.00001204,-0.00000797,0.00001673,-0.
 00004805,0.00007828,-0.00001145,0.00000226,0.00002586,-0.00003090,0.00
 001984,-0.00002888,-0.00001247,0.00002331,-0.00001215,0.00000110,-0.00
 028673,-0.00004603,0.00011997,0.00000022,0.00001686,0.00000317,-0.0000
 0486,0.00000659,0.00000371,-0.00001704,0.00000971,-0.00000296,-0.00000
 637,0.00000303,-0.00000149,-0.00000530,0.00000734,0.00000286,-0.000014
 04,-0.00000074,-0.00000040,-0.00109052,-0.00068688,0.00034187,-0.00001
 016,-0.00005751,-0.00004350,0.00004713,-0.00001606,-0.00001268,0.00019
 607,-0.00029505,0.00046668,-0.00043917,-0.00039937,-0.00042395,-0.0000
 5821,0.00007836,0.00000811,0.00002531,-0.00017662,-0.00007767,-0.00000
 697,0.00001473,0.00000435,0.00003895,-0.00001316,0.00001234,-0.0000930
 3,0.00008481,-0.00001958,-0.00000987,-0.00002929,-0.00003497,-0.000000
 07,-0.00000069,0.00000184,-0.00002046,-0.00001741,0.00002269,0.0000009
 7,-0.00000640,-0.00000607,0.00019614,0.00013568,0.00008581,0.00000024,
 -0.00000048,-0.00000396,0.00018696,-0.00022709,-0.00000508,-0.00018823
 ,-0.00021745,-0.00018904,-0.00006534,0.00004826,0.00000443,0.00000238,
 -0.00001112,-0.00000393,0.00034059,-0.00005623,-0.00020929,0.00017962,
 -0.00041465,0.00064858,0.00000725,0.00001396,0.00002181,0.00000042,-0.
 00000688,0.00000027,0.00000235,0.00000567,0.00000124,-0.00000335,-0.00
 000638,-0.00000300,0.09469559,-0.28980367,-0.00075362,0.00706670,-0.01
 423967,-0.00088114,-0.09992233,0.31243575,-0.00033558,0.00009796,0.000
 01323,-0.00000621,-0.00002370,0.00004585,0.00001525,-0.00000118,0.0000
 0071,0.00001523,0.00000506,0.00001658,-0.00002228,-0.00000766,0.000008
 81,0.00010314,-0.00003843,0.00009912,0.00021800,0.00306805,0.00178825,
 0.00480412,-0.02849162,0.00426669,0.00074804,-0.00067836,-0.00000731,-
 0.00000583,0.00000122,-0.00000626,0.00001081,0.00000459,0.00000887,0.0
 0000457,0.00000016,0.00000581,0.00000539,0.00000390,0.00001896,-0.0000
 0247,0.00001132,-0.00003418,-0.00074304,0.00009143,0.00000722,0.004724
 31,0.00226911,-0.00345753,0.00006528,-0.00002970,-0.00012223,0.0000436
 6,-0.00011879,0.00002126,-0.00002706,0.00020641,-0.00002210,0.00015197
 ,-0.00038892,-0.00002978,-0.00008442,-0.00001366,0.00008908,-0.0000442
 0,0.00022242,-0.00005313,0.00004662,0.00026763,-0.00000144,-0.00007019
 ,0.00004496,0.00002531,0.00008732,0.00002652,-0.00005815,0.00001366,0.
 00001151,-0.00003047,0.00001056,-0.00006186,-0.00003241,-0.00001082,-0
 .00004253,0.00003607,-0.00002457,0.00003819,0.00001867,-0.00002840,0.0
 0001685,0.00000379,0.00062227,0.00058529,-0.00033893,-0.00000223,-0.00
 002765,-0.00000593,0.00000523,-0.00000840,-0.00000668,0.00001497,-0.00
 001034,0.00000142,0.00000817,-0.00000395,-0.00000136,0.00000652,-0.000
 01225,-0.00000617,0.00001509,0.00000009,-0.00000055,-0.00076586,-0.000
 22350,0.00016409,-0.00014340,-0.00014120,-0.00004471,-0.00007119,-0.00
 010011,0.00006445,-0.00038783,-0.00051272,-0.00107661,-0.00133078,-0.0
 0049766,-0.00195773,-0.00006957,0.00006277,0.00001690,0.00003765,-0.00
 013015,-0.00009812,-0.00001406,0.00000624,-0.00000943,0.00002382,-0.00
 000741,0.00000621,-0.00000193,0.00005981,0.00001469,-0.00000853,-0.000
 00396,-0.00002624,-0.00000104,-0.00000121,0.00000137,0.00001559,-0.000
 02767,-0.00007321,0.00000138,-0.00000055,-0.00000045,0.00009452,0.0001
 1914,0.00002743,0.00000864,0.00000236,0.00000447,0.00010794,-0.0001112
 0,0.00003050,-0.00013322,-0.00008513,0.00002761,-0.00003158,0.00004007
 ,-0.00000358,0.00000054,-0.00000303,-0.00000381,-0.00047867,0.00016071
 ,0.00078158,-0.00029485,0.00183690,-0.00106895,-0.00010663,0.00015359,
 -0.00001350,0.00002787,0.00002467,0.00003217,0.00000326,0.00000513,0.0
 0000611,-0.00000339,-0.00001584,-0.00000702,0.00121936,-0.00438748,-0.
 04491877,-0.00105470,0.00157389,-0.00036403,-0.00084579,0.00346664,0.0
 4343403,0.00010380,-0.00001785,-0.00008278,-0.00000390,-0.00000340,0.0
 0002362,0.00000486,0.00000355,0.00000505,0.00000959,0.00000246,0.00000
 047,0.00000704,0.00000414,-0.00001761,-0.00001747,-0.00002055,-0.00000
 774,-0.00166388,0.00165777,0.00327002,0.01015891,-0.00352104,0.0180127
 2,0.00087235,-0.00070643,0.00022684,0.00001192,-0.00000107,0.00000394,
 0.00000072,0.00000019,0.00000109,0.00000108,0.00000036,-0.00000045,-0.
 00000240,0.00000140,-0.00000122,0.00000249,0.00001179,-0.00001588,-0.0
 0051833,0.00010138,-0.00007039,0.00151023,-0.00073808,-0.00179015,-0.0
 0002121,-0.00000513,-0.00000782,0.00000101,-0.00004359,-0.00003416,-0.
 00005893,-0.00002923,-0.00006557,0.00004318,-0.00003249,0.00011741,-0.
 00000065,0.00003039,0.00001114,0.00002369,0.00004570,0.00006018,-0.000
 01076,0.00004566,-0.00005233,0.00000064,0.00000795,-0.00002261,0.00000
 813,-0.00001215,-0.00002263,0.00000102,-0.00000639,-0.00000012,-0.0000
 1601,0.00000075,-0.00004699,-0.00000261,-0.00000685,-0.00002903,-0.000
 00615,0.00001427,0.00000329,0.00000147,-0.00000050,0.00000843,-0.00000
 592,-0.00007193,0.00003963,0.00000015,-0.00001013,-0.00000216,0.000000
 52,-0.00000138,-0.00000386,0.00000131,-0.00000390,-0.00000081,0.000001
 77,0.00000030,-0.00000511,0.00000061,-0.00000152,-0.00000200,-0.000002
 87,-0.00000215,-0.00000210,-0.00001467,-0.00005688,0.00004086,0.000012
 31,0.00001971,-0.00000112,-0.00000794,0.00001283,-0.00001392,-0.000423
 23,0.00019297,0.00000155,0.00021523,-0.00018282,-0.00013758,0.00010548
 ,-0.00008031,-0.00001324,-0.00015794,0.00025892,0.00017632,0.00004397,
 -0.00002963,0.00005239,-0.00004290,0.00000633,-0.00001507,-0.00001841,
 -0.00004420,-0.00004410,0.00004814,0.00000926,0.00001972,0.00000003,-0
 .00000173,0.00000054,0.00001055,-0.00009128,-0.00006785,0.00000143,-0.
 00000249,-0.00000348,-0.00045337,-0.00028812,-0.00021717,-0.00003222,-
 0.00000277,-0.00003789,-0.00008117,0.00007196,-0.00005383,0.00001931,-
 0.00010911,0.00003038,0.00003935,-0.00006870,-0.00003412,0.00000121,-0
 .00000074,0.00000115,0.00010025,0.00000145,0.00033104,0.00009197,0.000
 10699,-0.00032951,-0.00013426,0.00021981,-0.00006217,0.00003690,0.0000
 2903,0.00004789,0.00000450,-0.00000418,0.00000081,0.00000423,-0.000007
 60,0.00000343,-0.15046809,0.02770000,-0.14338963,-0.00788795,0.0068857
 3,-0.01608982,-0.00461382,-0.00113305,-0.00613041,0.15316574,-0.000131
 00,0.00007078,0.00011474,-0.00002379,-0.00002468,-0.00002259,0.0000019
 8,-0.00000031,0.00001548,0.00001094,0.00000548,-0.00000526,-0.00001371
 ,-0.00002391,0.00000045,0.00005098,0.00001939,0.00005071,0.00128694,0.
 00148763,-0.00052202,-0.00338008,-0.00078234,-0.00613396,-0.00000884,-
 0.00002283,-0.00006828,0.00000109,-0.00000199,-0.00000117,0.00000041,0
 .00000089,0.00000068,0.00000033,0.00000147,0.00000013,0.00000195,0.000
 00038,0.00000358,0.00000100,0.00000723,0.00000621,0.00006909,-0.000002
 99,0.00002191,-0.00113141,-0.00128450,0.00061277,-0.00001204,-0.000002
 52,0.00001398,-0.00001748,-0.00002283,0.00001438,-0.00000755,-0.000067
 72,-0.00004362,-0.00006304,0.00008478,0.00011720,0.00001187,0.00001791
 ,0.00000271,0.00005206,0.00004452,-0.00010195,0.00001212,-0.00007171,-
 0.00002944,0.00004547,0.00000004,-0.00003442,-0.00000420,-0.00001541,-
 0.00000199,-0.00000221,-0.00000392,0.00000199,-0.00000562,-0.00002414,
 0.00001981,-0.00002809,-0.00000697,0.00004960,0.00001940,-0.00001983,-
 0.00000784,0.00000525,0.00000417,-0.00000438,-0.00014865,-0.00022587,0
 .00018242,-0.00000305,0.00000565,0.00000270,-0.00000981,0.00000420,0.0
 0001744,-0.00001098,0.00000528,-0.00000133,-0.00000156,-0.00000214,0.0
 0000238,-0.00000067,-0.00000111,0.00000059,-0.00000351,-0.00000204,0.0
 0000042,0.00012799,-0.00003846,-0.00004829,0.00005000,0.00004934,-0.00
 001156,-0.00000616,0.00006309,-0.00007105,0.00032363,-0.00030624,0.000
 16404,-0.00027077,0.00001675,0.00005939,0.00007529,-0.00004483,0.00000
 984,-0.00012163,0.00013994,0.00009511,0.00001465,-0.00002086,0.0000155
 1,-0.00003346,0.00001233,-0.00001124,-0.00007880,-0.00005553,-0.000064
 62,0.00006667,0.00001821,0.00002713,0.00000256,-0.00000044,0.00000257,
 0.00003187,-0.00014318,-0.00005845,0.00000141,-0.00000235,-0.00000244,
 -0.00024249,-0.00015017,-0.00012214,-0.00000985,-0.00000016,-0.0000120
 0,-0.00006939,0.00008463,-0.00002562,0.00009576,-0.00007859,0.00009938
 ,0.00003970,-0.00004248,-0.00002143,-0.00000051,-0.00000113,0.00000151
 ,0.00002789,0.00005889,-0.00003975,0.00000738,0.00090515,-0.00083935,-
 0.00000752,-0.00001713,-0.00000883,0.00000036,-0.00000336,-0.00000550,
 0.00000165,-0.00000084,0.00000148,0.00000300,0.00000078,0.00000362,0.0
 2710982,-0.05087424,0.03891928,-0.00722400,0.00397114,-0.01482367,0.01
 362498,-0.00116019,0.02172320,-0.03010363,0.04846989,-0.00002009,0.000
 03028,0.00011222,0.00000673,0.00002043,-0.00005650,-0.00000371,-0.0000
 0435,-0.00001297,-0.00002115,-0.00000497,-0.00001491,-0.00000626,0.000
 00015,0.00001794,-0.00002807,0.00000804,-0.00000862,0.00277075,-0.0019
 5293,-0.00340683,-0.01747410,0.00511811,-0.02337682,-0.00135223,0.0010
 9966,-0.00005522,-0.00000324,0.00000212,0.00000016,-0.00000647,-0.0000
 0305,-0.00000542,-0.00000338,-0.00000089,-0.00000339,0.00000094,-0.000
 00275,-0.00000795,0.00000200,-0.00001794,0.00004321,0.00088412,-0.0001
 4814,0.00012786,-0.00176076,0.00024268,0.00491464,0.00002820,0.0000109
 3,0.00002834,-0.00001195,0.00003697,0.00004215,0.00007150,0.00004754,0
 .00011573,0.00001041,0.00002802,-0.00019867,-0.00000039,-0.00003143,-0
 .00003673,0.00002329,-0.00004737,-0.00013320,-0.00003069,-0.00004073,0
 .00007987,-0.00003110,-0.00002076,0.00004397,-0.00002347,0.00000890,0.
 00003601,0.00000095,0.00000283,0.00000870,0.00003377,-0.00002429,0.000
 08098,-0.00002125,0.00001242,0.00005001,0.00001447,-0.00001863,-0.0000
 0888,0.00000165,0.00000320,-0.00001025,0.00018967,0.00027529,-0.000173
 44,-0.00000161,0.00001147,0.00000427,-0.00000565,0.00000309,0.00001384
 ,-0.00000320,0.00000378,0.00000097,-0.00000217,-0.00000185,0.00000689,
 -0.00000091,0.00000287,0.00000345,0.00000235,0.00000030,0.00000200,-0.
 00013368,-0.00008362,0.00008035,-0.00005560,-0.00006266,-0.00001363,0.
 00002031,-0.00007869,0.00007965,0.00058731,-0.00057400,0.00048581,-0.0
 0006747,0.00008527,0.00006107,-0.00001521,-0.00001020,0.00001015,0.000
 07133,-0.00001882,-0.00001549,-0.00001639,0.00000618,-0.00002204,-0.00
 001221,0.00000474,0.00000369,-0.00005454,-0.00001463,-0.00003421,0.000
 02359,0.00001133,0.00001638,0.00000110,0.00000118,0.00000127,-0.000009
 73,-0.00012965,-0.00007423,0.00000005,-0.00000218,-0.00000340,0.000111
 54,0.00003079,0.00005216,0.00001154,0.00000015,0.00001850,-0.00000281,
 0.00003125,0.00001112,0.00001494,-0.00004017,0.00000481,0.00001306,0.0
 0000710,0.00000192,0.00000012,0.00000184,-0.00000190,-0.00006665,-0.00
 002158,-0.00047315,0.00000336,0.00058965,0.00017110,0.00020381,-0.0002
 9698,0.00004216,-0.00005272,-0.00003844,-0.00006138,-0.00001004,-0.000
 00635,-0.00000599,0.00000274,0.00001437,0.00000427,-0.13641474,0.03751
 240,-0.23308103,0.00330067,-0.00122814,0.00348140,0.00288280,-0.001109
 00,0.00279346,0.14643454,-0.03923017,0.24824378\\0.00000571,0.00000947
 ,0.00000895,0.00000204,0.00000248,-0.00000301,-0.00000292,-0.00000745,
 -0.00001109,-0.00000475,-0.00001213,-0.00000208,0.00000717,-0.00000296
 ,0.,-0.00000850,-0.00000431,-0.00000965,-0.00001287,0.00005602,0.00001
 127,0.00002339,-0.00001445,-0.00000700,-0.00000653,-0.00001742,-0.0000
 1133,0.00000013,-0.00000219,-0.00000856,0.00000109,-0.00000635,-0.0000
 0250,0.00000236,-0.00000867,-0.00000492,0.00000132,-0.00000975,-0.0000
 0444,0.00000160,-0.00000454,-0.00000674,0.00001368,0.00000365,-0.00001
 248,-0.00002592,-0.00000989,-0.00000181,-0.00001441,-0.00002158,0.0000
 0294,-0.00000776,0.00000068,0.00001643,-0.00001606,0.00000192,0.000024
 77,-0.00002906,0.00000171,0.00000446,0.00000788,-0.00000316,-0.0000022
 9,0.00000870,0.00000229,0.00003894,0.00000116,-0.00000097,0.00000700,0
 .00000191,0.00000016,-0.00000995,-0.00000759,0.00000450,-0.00001565,-0
 .00001250,0.00000529,0.00000276,-0.00001008,0.00001907,-0.00000490,0.0
 0000325,0.00000211,0.00000146,-0.00001887,0.00001201,-0.00000731,0.000
 01266,0.00000022,-0.00000898,-0.00000100,0.00000406,-0.00000517,0.0000
 0384,0.00000669,0.00001193,0.00000030,-0.00000941,0.00000827,0.0000114
 1,0.00000731,0.00001253,-0.00000390,0.00000136,0.00001488,-0.00000084,
 0.00000176,0.00000983,-0.00000505,-0.00000476,0.00000508,-0.00000398,0
 .00000591,-0.00001109,-0.00000173,0.00000829,-0.00000422,-0.00000319,0
 .00000379,-0.00000900,-0.00002105,-0.00001137,-0.00003442,0.00000131,-
 0.00000223,-0.00000483,-0.00004401,0.00001861,0.00000799,0.00002037,0.
 00001354,0.00000208,-0.00000886,-0.00001440,-0.00000347,-0.00001249,0.
 00000328,-0.00000044,0.00001660,0.00001252,-0.00000305,0.00000472,0.00
 000045,0.00001583,0.00000339,-0.00000064,0.00000789,-0.00000382,0.0000
 0213,0.00001410,-0.00000387,-0.00000052,0.00000738,-0.00000738,-0.0000
 1199,0.00000414,0.00000032,-0.00000472,0.00000325,0.00000540,0.0000005
 4,-0.00000191,0.00001075,0.00000719,0.00000606,0.00001545,-0.00001730,
 0.00000766,-0.00000026,-0.00000349,0.00000514,0.00008363,-0.00000797,-
 0.00004652,0.00000206,-0.00002082,-0.00000359,0.00002935,-0.00001034,0
 .00001575,-0.00000274,0.00000756,-0.00000731,0.00000550,-0.00000739,0.
 00000265,0.00000277,-0.00000134,-0.00000256,-0.00000123,0.00002315,-0.
 00000238,0.00000251,-0.00000139,-0.00000111,-0.00000864,-0.00000247,-0
 .00000307,-0.00000189,0.00000863,-0.00000262\\\@


 ...THOSE SCIENCES ARE VAIN AND FULL OF ERRORS WHICH 
 ARE NOT BORN FROM EXPERIMENT, THE MOTHER OF CERTAINTY...

                          -- LEONARDO DA VINCI, 1452-1519
 Job cpu time:       3 days  6 hours 17 minutes 28.9 seconds.
 Elapsed time:       0 days  3 hours 16 minutes 12.8 seconds.
 File lengths (MBytes):  RWF=  12764 Int=      0 D2E=      0 Chk=     88 Scr=      8
 Normal termination of Gaussian 16 at Sat May  3 03:47:21 2025.
