 Entering Gaussian System, Link 0=/sysapps/ubuntu-applications/gaussian-new/avx/g16//g16
 Input=irc-yb-1.in
 Output=irc-yb-1.log
 Initial command:
 /sysapps/ubuntu-applications/gaussian-new/avx/g16/l1.exe "/data/temp-scratch/selhajj1/7629496/Gau-301353.inp" -scrdir="/data/temp-scratch/selhajj1/7629496/"
 Entering Link 1 = /sysapps/ubuntu-applications/gaussian-new/avx/g16/l1.exe PID=    301355.
  
 Copyright (c) 1988,1990,1992,1993,1995,1998,2003,2009,2016,
            Gaussian, Inc.  All Rights Reserved.
  
 This is part of the Gaussian(R) 16 program.  It is based on
 the Gaussian(R) 09 system (copyright 2009, Gaussian, Inc.),
 the Gaussian(R) 03 system (copyright 2003, Gaussian, Inc.),
 the Gaussian(R) 98 system (copyright 1998, Gaussian, Inc.),
 the Gaussian(R) 94 system (copyright 1995, Gaussian, Inc.),
 the Gaussian 92(TM) system (copyright 1992, Gaussian, Inc.),
 the Gaussian 90(TM) system (copyright 1990, Gaussian, Inc.),
 the Gaussian 88(TM) system (copyright 1988, Gaussian, Inc.),
 the Gaussian 86(TM) system (copyright 1986, Carnegie Mellon
 University), and the Gaussian 82(TM) system (copyright 1983,
 Carnegie Mellon University). Gaussian is a federally registered
 trademark of Gaussian, Inc.
  
 This software contains proprietary and confidential information,
 including trade secrets, belonging to Gaussian, Inc.
  
 This software is provided under written license and may be
 used, copied, transmitted, or stored only in accord with that
 written license.
  
 The following legend is applicable only to US Government
 contracts under FAR:
  
                    RESTRICTED RIGHTS LEGEND
  
 Use, reproduction and disclosure by the US Government is
 subject to restrictions as set forth in subparagraphs (a)
 and (c) of the Commercial Computer Software - Restricted
 Rights clause in FAR 52.227-19.
  
 Gaussian, Inc.
 340 Quinnipiac St., Bldg. 40, Wallingford CT 06492
  
  
 ---------------------------------------------------------------
 Warning -- This program may not be used in any manner that
 competes with the business of Gaussian, Inc. or will provide
 assistance to any competitor of Gaussian, Inc.  The licensee
 of this program is prohibited from giving any competitor of
 Gaussian, Inc. access to this program.  By using this program,
 the user acknowledges that Gaussian, Inc. is engaged in the
 business of creating and licensing software in the field of
 computational chemistry and represents and warrants to the
 licensee that it is not a competitor of Gaussian, Inc. and that
 it will not use this program in any manner prohibited above.
 ---------------------------------------------------------------
  

 Cite this work as:
 Gaussian 16, Revision A.03,
 M. J. Frisch, G. W. Trucks, H. B. Schlegel, G. E. Scuseria, 
 M. A. Robb, J. R. Cheeseman, G. Scalmani, V. Barone, 
 G. A. Petersson, H. Nakatsuji, X. Li, M. Caricato, A. V. Marenich, 
 J. Bloino, B. G. Janesko, R. Gomperts, B. Mennucci, H. P. Hratchian, 
 J. V. Ortiz, A. F. Izmaylov, J. L. Sonnenberg, D. Williams-Young, 
 F. Ding, F. Lipparini, F. Egidi, J. Goings, B. Peng, A. Petrone, 
 T. Henderson, D. Ranasinghe, V. G. Zakrzewski, J. Gao, N. Rega, 
 G. Zheng, W. Liang, M. Hada, M. Ehara, K. Toyota, R. Fukuda, 
 J. Hasegawa, M. Ishida, T. Nakajima, Y. Honda, O. Kitao, H. Nakai, 
 T. Vreven, K. Throssell, J. A. Montgomery, Jr., J. E. Peralta, 
 F. Ogliaro, M. J. Bearpark, J. J. Heyd, E. N. Brothers, K. N. Kudin, 
 V. N. Staroverov, T. A. Keith, R. Kobayashi, J. Normand, 
 K. Raghavachari, A. P. Rendell, J. C. Burant, S. S. Iyengar, 
 J. Tomasi, M. Cossi, J. M. Millam, M. Klene, C. Adamo, R. Cammi, 
 J. W. Ochterski, R. L. Martin, K. Morokuma, O. Farkas, 
 J. B. Foresman, and D. J. Fox, Gaussian, Inc., Wallingford CT, 2016.
 
 ******************************************
 Gaussian 16:  ES64L-G16RevA.03 25-Dec-2016
                 3-Mar-2025 
 ******************************************
 %chk=ts1.chk
 %mem=616Gb
 %nprocshared=24
 Will use up to   24 processors via shared memory.
 ----------------------------------------------------------------------
 # irc=(maxpoints=100,recorrect=never,calcfc,maxcycles=500,nogradstop) 
 UMN15/genecp scrf=(smd,solvent=DiChloroEthane)
 ----------------------------------------------------------------------
 1/6=500,10=4,18=10,26=3,38=1,42=100,44=3,108=-1,131=1,172=1/1,23;
 2/12=2,17=6,18=5,29=1,40=1/2;
 3/5=7,11=2,16=1,17=8,25=1,30=1,70=32201,71=2,72=10,74=-73,116=2,140=1/1,2,3;
 4//1;
 5/5=2,38=5,53=10/2;
 8/6=4,10=90,11=11/1;
 11/6=1,8=1,9=11,15=111,16=1/1,2,10;
 10/6=1,13=1/2;
 6/7=2,8=2,9=2,10=2,28=1/1;
 7/10=1,18=20,25=1/1,2,3,16;
 1/6=500,10=4,18=10,26=3,42=100,44=3,108=-1,131=1/23(2);
 2/29=1/2;
 99/5=20/99;
 2/29=1/2;
 3/5=7,6=1,11=2,16=1,17=8,25=1,30=1,70=32205,71=2,72=10,74=-73,82=7,116=2,140=1/1,2,3;
 4/5=5,16=3,69=1/1;
 5/5=2,38=5,53=10/2;
 8/6=4,10=90,11=11/1;
 11/6=1,8=1,9=11,15=111,16=1/1,2,10;
 10/6=1,13=1/2;
 7/10=1,18=20,25=1/1,2,3,16;
 1/6=500,18=10,26=3,42=100,44=3,108=-1,131=1/23(-8);
 2/29=1/2;
 6/7=2,8=2,9=2,10=2,19=2,28=1/1;
 99/5=20,9=1/99;
 -------------------------------------------------------------
 IRC for Going from opening the ring, where we are opening 7-8
 -------------------------------------------------------------
 Symbolic Z-matrix:
 Charge =  0 Multiplicity = 2
 C                    -4.34725  -0.78486  -0.74463 
 C                    -5.02874   0.03001  -1.69866 
 C                    -5.93449   0.96507  -1.24593 
 C                    -6.16223   1.10597   0.13996 
 C                    -5.50636   0.29924   1.0884 
 C                    -4.61221  -0.65595   0.65347 
 C                    -3.40766  -1.76115  -1.11018 
 C                    -1.81656  -1.42336  -1.97002 
 O                    -3.00272  -1.93725  -2.40424 
 C                    -0.78523  -2.35607  -1.41719 
 C                    -1.46276  -0.00715  -2.27857 
 H                    -4.83336  -0.11152  -2.76207 
 H                    -6.47814   1.59571  -1.95053 
 H                    -6.87466   1.85887   0.48495 
 H                    -5.70558   0.4304    2.15268 
 H                    -4.08112  -1.30698   1.35037 
 H                    -3.07177  -2.50786  -0.37578 
 O                    -0.37867   0.47177  -2.00209 
 O                     0.27105  -1.97018  -0.95701 
 Yb                    1.00758   0.24167   0.03622 
 O                    -1.17281  -3.6038   -1.4522 
 O                    -2.42941   0.63998  -2.87158 
 C                    -0.29213  -4.54607  -0.81614 
 C                    -2.1998    2.03643  -3.13013 
 H                    -0.78776  -5.51896  -0.8803 
 H                    -0.14433  -4.24688   0.23054 
 H                     0.67301  -4.5648   -1.33899 
 H                    -3.16477   2.45222  -3.43605 
 H                    -1.46063   2.14395  -3.93513 
 H                    -1.82411   2.52612  -2.22204 
 O                    -0.28023   2.4414    0.18479 
 O                     0.43073  -1.47792   1.89771 
 O                     2.81127  -0.55892  -1.51513 
 S                     3.86575  -0.67908  -0.48194 
 S                     0.72566   3.23853  -0.55842 
 S                    -1.03201  -1.37426   1.74227 
 O                     3.33599  -0.20449   0.82247 
 O                     5.20161  -0.2536   -0.84141 
 O                     1.86434   2.36815  -0.94074 
 O                     0.22163   4.15193  -1.56512 
 O                    -1.38396  -0.31591   0.76085 
 O                    -1.77481  -2.62128   1.57748 
 C                    -1.58353  -0.67542   3.34982 
 C                     1.45512   4.30314   0.74742 
 C                     3.99912  -2.49406  -0.23042 
 F                    -2.89357  -0.47202   3.33526 
 F                    -0.96888   0.47858   3.55188 
 F                    -1.28435  -1.5107    4.32753 
 F                     1.94118   3.53783   1.71828 
 F                     0.52883   5.10234   1.25441 
 F                     2.43494   5.03781   0.24712 
 F                     2.83199  -2.98602   0.16301 
 F                     4.91039  -2.75868   0.69383 
 F                     4.35152  -3.08285  -1.3643 
 
 IRC-IRC-IRC-IRC-IRC-IRC-IRC-IRC-IRC-IRC-IRC-IRC-IRC-IRC-IRC-IRC-IRC-IRC
 ------------------------------------------------------------------------
 INPUT DATA FOR L123
 ------------------------------------------------------------------------
 GENERAL PARAMETERS:
 Follow reaction path in both directions.
 Maximum points per path      = 100
 Step size                    =   0.100 bohr
 Integration scheme           = HPC                                 
    Redo corrector integration= Never                               
    DWI Weight Power          =  2
    DWI will use Hessian update vectors when possible.
 Initial Hessian              = CalcFC
 Hessian evaluation           = All updating
 Hessian updating method      = Bofill                              
 ------------------------------------------------------------------------
 IRC-IRC-IRC-IRC-IRC-IRC-IRC-IRC-IRC-IRC-IRC-IRC-IRC-IRC-IRC-IRC-IRC-IRC
 Symmetry turned off by external request.
 Stoichiometry    C15H12F9O14S3Yb(2)
 Framework group  C1[X(C15H12F9O14S3Yb)]
 Deg. of freedom   156
 Full point group                 C1      NOp   1
                          Input orientation:                          
 ---------------------------------------------------------------------
 Center     Atomic      Atomic             Coordinates (Angstroms)
 Number     Number       Type             X           Y           Z
 ---------------------------------------------------------------------
      1          6           0       -4.347245   -0.784863   -0.744631
      2          6           0       -5.028737    0.030005   -1.698662
      3          6           0       -5.934492    0.965068   -1.245926
      4          6           0       -6.162225    1.105966    0.139960
      5          6           0       -5.506359    0.299240    1.088398
      6          6           0       -4.612208   -0.655950    0.653474
      7          6           0       -3.407656   -1.761153   -1.110183
      8          6           0       -1.816557   -1.423360   -1.970015
      9          8           0       -3.002724   -1.937251   -2.404243
     10          6           0       -0.785229   -2.356068   -1.417194
     11          6           0       -1.462760   -0.007145   -2.278567
     12          1           0       -4.833363   -0.111515   -2.762074
     13          1           0       -6.478138    1.595708   -1.950534
     14          1           0       -6.874662    1.858868    0.484947
     15          1           0       -5.705576    0.430395    2.152679
     16          1           0       -4.081117   -1.306982    1.350370
     17          1           0       -3.071769   -2.507856   -0.375775
     18          8           0       -0.378670    0.471771   -2.002087
     19          8           0        0.271051   -1.970179   -0.957010
     20         70           0        1.007575    0.241665    0.036217
     21          8           0       -1.172805   -3.603804   -1.452201
     22          8           0       -2.429407    0.639976   -2.871578
     23          6           0       -0.292131   -4.546070   -0.816144
     24          6           0       -2.199800    2.036433   -3.130131
     25          1           0       -0.787761   -5.518958   -0.880304
     26          1           0       -0.144332   -4.246884    0.230541
     27          1           0        0.673009   -4.564797   -1.338990
     28          1           0       -3.164765    2.452215   -3.436053
     29          1           0       -1.460634    2.143953   -3.935132
     30          1           0       -1.824105    2.526124   -2.222044
     31          8           0       -0.280228    2.441403    0.184790
     32          8           0        0.430727   -1.477923    1.897707
     33          8           0        2.811268   -0.558920   -1.515134
     34         16           0        3.865751   -0.679084   -0.481941
     35         16           0        0.725660    3.238529   -0.558419
     36         16           0       -1.032007   -1.374264    1.742269
     37          8           0        3.335993   -0.204494    0.822474
     38          8           0        5.201613   -0.253604   -0.841405
     39          8           0        1.864344    2.368154   -0.940736
     40          8           0        0.221626    4.151931   -1.565117
     41          8           0       -1.383955   -0.315913    0.760847
     42          8           0       -1.774809   -2.621276    1.577482
     43          6           0       -1.583527   -0.675421    3.349821
     44          6           0        1.455116    4.303142    0.747421
     45          6           0        3.999115   -2.494059   -0.230422
     46          9           0       -2.893571   -0.472015    3.335256
     47          9           0       -0.968875    0.478576    3.551875
     48          9           0       -1.284345   -1.510699    4.327530
     49          9           0        1.941181    3.537834    1.718278
     50          9           0        0.528829    5.102345    1.254413
     51          9           0        2.434941    5.037811    0.247124
     52          9           0        2.831988   -2.986020    0.163007
     53          9           0        4.910391   -2.758679    0.693830
     54          9           0        4.351515   -3.082851   -1.364302
 ---------------------------------------------------------------------
 Rotational constants (GHZ):           0.0820320           0.0623867           0.0507999
 General basis read from cards:  (5D, 7F)
 ======================================================================================================
                                       Pseudopotential Parameters
 ======================================================================================================
  Center     Atomic      Valence      Angular      Power
  Number     Number     Electrons     Momentum     of R      Exponent        Coefficient   SO-Coeffient
 ======================================================================================================
    1          6
                                   No pseudopotential on this center.
    2          6
                                   No pseudopotential on this center.
    3          6
                                   No pseudopotential on this center.
    4          6
                                   No pseudopotential on this center.
    5          6
                                   No pseudopotential on this center.
    6          6
                                   No pseudopotential on this center.
    7          6
                                   No pseudopotential on this center.
    8          6
                                   No pseudopotential on this center.
    9          8
                                   No pseudopotential on this center.
   10          6
                                   No pseudopotential on this center.
   11          6
                                   No pseudopotential on this center.
   12          1
                                   No pseudopotential on this center.
   13          1
                                   No pseudopotential on this center.
   14          1
                                   No pseudopotential on this center.
   15          1
                                   No pseudopotential on this center.
   16          1
                                   No pseudopotential on this center.
   17          1
                                   No pseudopotential on this center.
   18          8
                                   No pseudopotential on this center.
   19          8
                                   No pseudopotential on this center.
   20         70           42
                                      H and up 
                                                     2        1.0000000        0.00000000    0.00000000
                                      S - H
                                                     2       32.4244840      891.01377700    0.00000000
                                      P - H
                                                     2       18.6562320      264.03695300    0.00000000
                                      D - H
                                                     2       10.4902220       73.92391900    0.00000000
                                      F - H
                                                     2       20.7741830      -39.59217300    0.00000000
                                      G - H
                                                     2       28.4310280      -34.63863800    0.00000000
   21          8
                                   No pseudopotential on this center.
   22          8
                                   No pseudopotential on this center.
   23          6
                                   No pseudopotential on this center.
   24          6
                                   No pseudopotential on this center.
   25          1
                                   No pseudopotential on this center.
   26          1
                                   No pseudopotential on this center.
   27          1
                                   No pseudopotential on this center.
   28          1
                                   No pseudopotential on this center.
   29          1
                                   No pseudopotential on this center.
   30          1
                                   No pseudopotential on this center.
   31          8
                                   No pseudopotential on this center.
   32          8
                                   No pseudopotential on this center.
   33          8
                                   No pseudopotential on this center.
   34         16
                                   No pseudopotential on this center.
   35         16
                                   No pseudopotential on this center.
   36         16
                                   No pseudopotential on this center.
   37          8
                                   No pseudopotential on this center.
   38          8
                                   No pseudopotential on this center.
   39          8
                                   No pseudopotential on this center.
   40          8
                                   No pseudopotential on this center.
   41          8
                                   No pseudopotential on this center.
   42          8
                                   No pseudopotential on this center.
   43          6
                                   No pseudopotential on this center.
   44          6
                                   No pseudopotential on this center.
   45          6
                                   No pseudopotential on this center.
   46          9
                                   No pseudopotential on this center.
   47          9
                                   No pseudopotential on this center.
   48          9
                                   No pseudopotential on this center.
   49          9
                                   No pseudopotential on this center.
   50          9
                                   No pseudopotential on this center.
   51          9
                                   No pseudopotential on this center.
   52          9
                                   No pseudopotential on this center.
   53          9
                                   No pseudopotential on this center.
   54          9
                                   No pseudopotential on this center.
 ======================================================================================================
   742 basis functions,  1359 primitive gaussians,   806 cartesian basis functions
   193 alpha electrons      192 beta electrons
       nuclear repulsion energy      8772.1105764534 Hartrees.
 NAtoms=   54 NActive=   54 NUniq=   54 SFac= 1.00D+00 NAtFMM=   60 NAOKFM=F Big=F
 Integral buffers will be    131072 words long.
 Raffenetti 2 integral format.
 Two-electron integral symmetry is turned off.
 Force inversion solution in PCM.
 ------------------------------------------------------------------------------
 Polarizable Continuum Model (PCM)
 =================================
 Model                : PCM.
 Atomic radii         : SMD-Coulomb.
 Polarization charges : Total charges.
 Charge compensation  : None.
 Solution method      : Matrix inversion.
 Cavity type          : VdW (van der Waals Surface) (Alpha=1.000).
 Cavity algorithm     : GePol (No added spheres)
                        Default sphere list used, NSphG=   54.
                        Lebedev-Laikov grids with approx.  5.0 points / Ang**2.
                        Smoothing algorithm: York/Karplus (Gamma=1.0000).
                        Polarization charges: spherical gaussians, with
                                              point-specific exponents (IZeta= 3).
                        Self-potential: point-specific (ISelfS= 7).
                        Self-field    : sphere-specific E.n sum rule (ISelfD= 2).
 1st derivatives      : Analytical E(r).r(x)/FMM algorithm (CHGder, D1EAlg=3).
                        Cavity 1st derivative terms included.
 2nd derivatives      : Analytical E(r).r(xy)/FMM algorithm (CHGder, D2EAlg=3).
                        Cavity 2nd derivative terms included.
 Solvent              : DiChloroEthane, Eps=  10.125000 Eps(inf)=   2.087447
 ------------------------------------------------------------------------------
 ------------------------------------------------------------------------------
 Atomic radii for non-electrostatic terms: SMD-CDS.
 ------------------------------------------------------------------------------
 Nuclear repulsion after PCM non-electrostatic terms =     8772.1147321288 Hartrees.
 One-electron integrals computed using PRISM.
   1 Symmetry operations used in ECPInt.
 ECPInt:  NShTT=   50086 NPrTT=  191923 LenC2=   40222 LenP2D=   94402.
 LDataN:  DoStor=T MaxTD1= 9 Len=  602
 NBasis=   742 RedAO= T EigKep=  3.03D-04  NBF=   742
 NBsUse=   742 1.00D-06 EigRej= -1.00D+00 NBFU=   742
 Defaulting to unpruned grid for atomic number  70.
 ExpMin= 2.50D-02 ExpMax= 9.20D+04 ExpMxC= 1.38D+04 IAcc=3 IRadAn=         5 AccDes= 0.00D+00
 Harris functional with IExCor= 1009 and IRadAn=       5 diagonalized for initial guess.
 HarFok:  IExCor= 1009 AccDes= 0.00D+00 IRadAn=         5 IDoV= 1 UseB2=F ITyADJ=14
 ICtDFT=  3500011 ScaDFX=  1.000000  1.000000  1.000000  1.000000
 Defaulting to unpruned grid for atomic number  70.
 FoFCou: FMM=F IPFlag=           0 FMFlag=      100000 FMFlg1=           0
         NFxFlg=           0 DoJE=T BraDBF=F KetDBF=T FulRan=T
         wScrn=  0.000000 ICntrl=       500 IOpCl=  0 I1Cent=   200000004 NGrid=           0
         NMat0=    1 NMatS0=      1 NMatT0=    0 NMatD0=    1 NMtDS0=    0 NMtDT0=    0
 Symmetry not used in FoFCou.
 Initial guess <Sx>= 0.0000 <Sy>= 0.0000 <Sz>= 0.5000 <S**2>= 0.7500 S= 0.5000
 Requested convergence on RMS density matrix=1.00D-08 within 128 cycles.
 Requested convergence on MAX density matrix=1.00D-06.
 Requested convergence on             energy=1.00D-06.
 No special actions if energy rises.
 Defaulting to unpruned grid for atomic number  70.
 Defaulting to unpruned grid for atomic number  70.
 Defaulting to unpruned grid for atomic number  70.
 Defaulting to unpruned grid for atomic number  70.
 Defaulting to unpruned grid for atomic number  70.
 Defaulting to unpruned grid for atomic number  70.
 Defaulting to unpruned grid for atomic number  70.
 Defaulting to unpruned grid for atomic number  70.
 Defaulting to unpruned grid for atomic number  70.
 Defaulting to unpruned grid for atomic number  70.
 Defaulting to unpruned grid for atomic number  70.
 Defaulting to unpruned grid for atomic number  70.
 Defaulting to unpruned grid for atomic number  70.
 Defaulting to unpruned grid for atomic number  70.
 Defaulting to unpruned grid for atomic number  70.
 Defaulting to unpruned grid for atomic number  70.
 Defaulting to unpruned grid for atomic number  70.
 Defaulting to unpruned grid for atomic number  70.
 Defaulting to unpruned grid for atomic number  70.
 Defaulting to unpruned grid for atomic number  70.
 Defaulting to unpruned grid for atomic number  70.
 Defaulting to unpruned grid for atomic number  70.
 Defaulting to unpruned grid for atomic number  70.
 Defaulting to unpruned grid for atomic number  70.
 Inv3:  Mode=1 IEnd=    45372963.
 Iteration    1 A*A^-1 deviation from unit magnitude is 8.44D-15 for   3889.
 Iteration    1 A*A^-1 deviation from orthogonality  is 4.11D-15 for   3889   3141.
 Iteration    1 A^-1*A deviation from unit magnitude is 8.44D-15 for   3889.
 Iteration    1 A^-1*A deviation from orthogonality  is 2.31D-15 for   3885   3864.
 EnCoef did     4 forward-backward iterations
 EnCoef did   100 forward-backward iterations
 EnCoef did     2 forward-backward iterations
 EnCoef did    14 forward-backward iterations
 Restarting incremental Fock formation.
 Error on total polarization charges =  0.02283
 SCF Done:  E(UMN15) =  -4881.64075884     A.U. after   34 cycles
            NFock= 34  Conv=0.60D-08     -V/T= 2.0994
 <Sx>= 0.0000 <Sy>= 0.0000 <Sz>= 0.5000 <S**2>= 0.7741 S= 0.5120
 <L.S>=  0.00000000000    
 SMD-CDS (non-electrostatic) energy       (kcal/mol) =       2.61
 (included in total energy above)
 Annihilation of the first spin contaminant:
 S**2 before annihilation     0.7741,   after     0.7503
 DoSCS=F DFT=T ScalE2(SS,OS)=  1.000000  1.000000
 Range of M.O.s used for correlation:     1   742
 NBasis=   742 NAE=   193 NBE=   192 NFC=     0 NFV=     0
 NROrb=    742 NOA=   193 NOB=   192 NVA=   549 NVB=   550

 **** Warning!!: The largest alpha MO coefficient is  0.12748600D+02


 **** Warning!!: The largest beta MO coefficient is  0.12748578D+02


 **** Warning!!: The smallest beta delta epsilon is  0.65464497D-01

   1 Symmetry operations used in ECPInt.
 ECPInt:  NShTT=   50086 NPrTT=  191923 LenC2=   40222 LenP2D=   94402.
 LDataN:  DoStor=T MaxTD1=10 Len=  848
 Symmetrizing basis deriv contribution to polar:
 IMax=3 JMax=2 DiffMx= 0.00D+00
 G2DrvN: will do    55 centers at a time, making    1 passes.
 Calling FoFCou, ICntrl=  3107 FMM=F I1Cent=   0 AccDes= 0.00D+00.
 Defaulting to unpruned grid for atomic number  70.
 Defaulting to unpruned grid for atomic number  70.
 Defaulting to unpruned grid for atomic number  70.
 Defaulting to unpruned grid for atomic number  70.
 Defaulting to unpruned grid for atomic number  70.
 Defaulting to unpruned grid for atomic number  70.
 Defaulting to unpruned grid for atomic number  70.
 Defaulting to unpruned grid for atomic number  70.
 Defaulting to unpruned grid for atomic number  70.
 Defaulting to unpruned grid for atomic number  70.
 Defaulting to unpruned grid for atomic number  70.
 Defaulting to unpruned grid for atomic number  70.
 Defaulting to unpruned grid for atomic number  70.
 Defaulting to unpruned grid for atomic number  70.
 Defaulting to unpruned grid for atomic number  70.
 Defaulting to unpruned grid for atomic number  70.
 Defaulting to unpruned grid for atomic number  70.
 Defaulting to unpruned grid for atomic number  70.
 Defaulting to unpruned grid for atomic number  70.
 Defaulting to unpruned grid for atomic number  70.
 Defaulting to unpruned grid for atomic number  70.
 Defaulting to unpruned grid for atomic number  70.
 Defaulting to unpruned grid for atomic number  70.
 Defaulting to unpruned grid for atomic number  70.
 NEqPCM:  Using equilibrium solvation (IEInf=0, Eps=  10.1250, EpsInf=   2.0874)
 G2PCM: DoFxE=T DoFxN=T DoGrad=T DoDP/DQ/DG/TGxP=FFFF NFrqRd=   0 IEInf=0 SqF1=F DoCFld=F IF1Alg=4.
 End of G2Drv F.D. properties file   721 does not exist.
 End of G2Drv F.D. properties file   722 does not exist.
 End of G2Drv F.D. properties file   788 does not exist.
          IDoAtm=11111111111111111111111111111111111111111111111111
          IDoAtm=1111
 NEqPCM:  Using equilibrium solvation (IEInf=0, Eps=  10.1250, EpsInf=   2.0874)
          Differentiating once with respect to nuclear coordinates.
 Defaulting to unpruned grid for atomic number  70.
 CalDSu exits because no D1Ps are significant.
 Defaulting to unpruned grid for atomic number  70.
 Defaulting to unpruned grid for atomic number  70.
 Defaulting to unpruned grid for atomic number  70.
 Defaulting to unpruned grid for atomic number  70.
 Defaulting to unpruned grid for atomic number  70.
 Defaulting to unpruned grid for atomic number  70.
 Defaulting to unpruned grid for atomic number  70.
 Defaulting to unpruned grid for atomic number  70.
 Defaulting to unpruned grid for atomic number  70.
 Defaulting to unpruned grid for atomic number  70.
 Defaulting to unpruned grid for atomic number  70.
 Defaulting to unpruned grid for atomic number  70.
 Defaulting to unpruned grid for atomic number  70.
 Defaulting to unpruned grid for atomic number  70.
 Defaulting to unpruned grid for atomic number  70.
 Defaulting to unpruned grid for atomic number  70.
 Defaulting to unpruned grid for atomic number  70.
 Defaulting to unpruned grid for atomic number  70.
 Defaulting to unpruned grid for atomic number  70.
 Defaulting to unpruned grid for atomic number  70.
 Defaulting to unpruned grid for atomic number  70.
 Defaulting to unpruned grid for atomic number  70.
 Defaulting to unpruned grid for atomic number  70.
 Defaulting to unpruned grid for atomic number  70.
          There are   165 degrees of freedom in the 1st order CPHF.  IDoFFX=6 NUNeed=     0.
    159 vectors produced by pass  0 Test12= 2.12D-13 1.00D-09 XBig12= 3.64D-01 2.34D-01.
 AX will form   159 AO Fock derivatives at one time.
    159 vectors produced by pass  1 Test12= 2.12D-13 1.00D-09 XBig12= 9.18D-02 5.16D-02.
    159 vectors produced by pass  2 Test12= 2.12D-13 1.00D-09 XBig12= 2.51D-03 1.22D-02.
    159 vectors produced by pass  3 Test12= 2.12D-13 1.00D-09 XBig12= 6.15D-05 1.53D-03.
    159 vectors produced by pass  4 Test12= 2.12D-13 1.00D-09 XBig12= 7.89D-07 1.09D-04.
    159 vectors produced by pass  5 Test12= 2.12D-13 1.00D-09 XBig12= 8.21D-09 1.28D-05.
    159 vectors produced by pass  6 Test12= 2.12D-13 1.00D-09 XBig12= 6.02D-11 7.31D-07.
    108 vectors produced by pass  7 Test12= 2.12D-13 1.00D-09 XBig12= 4.74D-13 9.96D-08.
     38 vectors produced by pass  8 Test12= 2.12D-13 1.00D-09 XBig12= 4.73D-15 5.94D-09.
      1 vectors produced by pass  9 Test12= 2.12D-13 1.00D-09 XBig12= 3.06D-16 1.24D-09.
 InvSVY:  IOpt=1 It=  1 EMax= 1.11D-15
 Solved reduced A of dimension  1260 with   165 vectors.
 End of Minotr F.D. properties file   721 does not exist.
 End of Minotr F.D. properties file   722 does not exist.
 End of Minotr F.D. properties file   788 does not exist.

 **********************************************************************

            Population analysis using the SCF density.

 **********************************************************************

 Alpha  occ. eigenvalues --  -88.05001 -88.03397 -88.03173 -24.33976 -24.33753
 Alpha  occ. eigenvalues --  -24.33655 -24.32785 -24.32622 -24.32582 -24.32473
 Alpha  occ. eigenvalues --  -24.32402 -24.32360 -18.93783 -18.90551 -18.90416
 Alpha  occ. eigenvalues --  -18.86071 -18.86008 -18.83002 -18.82812 -18.82697
 Alpha  occ. eigenvalues --  -18.81317 -18.81302 -18.81212 -18.80985 -18.80806
 Alpha  occ. eigenvalues --  -18.80374 -16.29806 -10.93230 -10.93164 -10.93023
 Alpha  occ. eigenvalues --  -10.32806 -10.31362 -10.31092 -10.24473 -10.24333
 Alpha  occ. eigenvalues --  -10.22239 -10.21435 -10.12558 -10.11782 -10.11745
 Alpha  occ. eigenvalues --  -10.11694 -10.11406 -10.11255 -10.09488 -10.09307
 Alpha  occ. eigenvalues --   -7.94748  -7.93151  -7.92922  -6.14247  -6.14214
 Alpha  occ. eigenvalues --   -6.14164  -6.12643  -6.12624  -6.12570  -6.12423
 Alpha  occ. eigenvalues --   -6.12393  -6.12339  -5.01533  -5.01490  -5.01375
 Alpha  occ. eigenvalues --   -5.01269  -5.01244  -1.96517  -1.37441  -1.36227
 Alpha  occ. eigenvalues --   -1.35982  -1.27468  -1.27399  -1.26241  -1.26228
 Alpha  occ. eigenvalues --   -1.25981  -1.25953  -1.23642  -1.19276  -1.19071
 Alpha  occ. eigenvalues --   -1.18712  -1.17522  -1.17308  -1.10449  -1.09323
 Alpha  occ. eigenvalues --   -1.05844  -1.05066  -1.04480  -1.04218  -1.03210
 Alpha  occ. eigenvalues --   -1.02892  -1.00934  -1.00693  -1.00328  -0.95121
 Alpha  occ. eigenvalues --   -0.87375  -0.85564  -0.82932  -0.81680  -0.79522
 Alpha  occ. eigenvalues --   -0.78171  -0.77877  -0.76627  -0.75807  -0.71646
 Alpha  occ. eigenvalues --   -0.70339  -0.70054  -0.69628  -0.68512  -0.67473
 Alpha  occ. eigenvalues --   -0.67342  -0.66475  -0.66261  -0.66212  -0.65996
 Alpha  occ. eigenvalues --   -0.65972  -0.63869  -0.63134  -0.62548  -0.61457
 Alpha  occ. eigenvalues --   -0.60952  -0.59350  -0.59181  -0.58911  -0.57871
 Alpha  occ. eigenvalues --   -0.57223  -0.56941  -0.56867  -0.55858  -0.55561
 Alpha  occ. eigenvalues --   -0.55166  -0.54510  -0.54369  -0.54241  -0.54105
 Alpha  occ. eigenvalues --   -0.53859  -0.53422  -0.52969  -0.52652  -0.52519
 Alpha  occ. eigenvalues --   -0.52295  -0.51883  -0.51723  -0.51580  -0.51509
 Alpha  occ. eigenvalues --   -0.51321  -0.51163  -0.51040  -0.50561  -0.50112
 Alpha  occ. eigenvalues --   -0.50032  -0.49942  -0.49808  -0.49579  -0.48926
 Alpha  occ. eigenvalues --   -0.48847  -0.48294  -0.47854  -0.47595  -0.47057
 Alpha  occ. eigenvalues --   -0.46504  -0.44437  -0.43974  -0.43169  -0.42985
 Alpha  occ. eigenvalues --   -0.42584  -0.42295  -0.41725  -0.41521  -0.41209
 Alpha  occ. eigenvalues --   -0.40855  -0.40355  -0.39792  -0.39411  -0.39024
 Alpha  occ. eigenvalues --   -0.38455  -0.38402  -0.37996  -0.37291  -0.36967
 Alpha  occ. eigenvalues --   -0.36900  -0.36607  -0.36568  -0.36085  -0.35038
 Alpha  occ. eigenvalues --   -0.34706  -0.34538  -0.33447  -0.33240  -0.33092
 Alpha  occ. eigenvalues --   -0.32149  -0.28048  -0.27941  -0.27901  -0.27846
 Alpha  occ. eigenvalues --   -0.27805  -0.27718  -0.27596
 Alpha virt. eigenvalues --   -0.11762  -0.01930  -0.01619   0.00053   0.06296
 Alpha virt. eigenvalues --    0.07316   0.08117   0.08536   0.08879   0.09944
 Alpha virt. eigenvalues --    0.10134   0.10478   0.10738   0.10911   0.11632
 Alpha virt. eigenvalues --    0.12125   0.12248   0.12685   0.13197   0.13411
 Alpha virt. eigenvalues --    0.13536   0.14227   0.14304   0.14500   0.15429
 Alpha virt. eigenvalues --    0.15497   0.15893   0.16435   0.16805   0.17132
 Alpha virt. eigenvalues --    0.17254   0.17457   0.17768   0.18153   0.18481
 Alpha virt. eigenvalues --    0.18853   0.19166   0.19468   0.20011   0.20219
 Alpha virt. eigenvalues --    0.20682   0.21715   0.22002   0.22191   0.24334
 Alpha virt. eigenvalues --    0.24537   0.25156   0.25777   0.26208   0.26751
 Alpha virt. eigenvalues --    0.26856   0.27272   0.27409   0.27572   0.28538
 Alpha virt. eigenvalues --    0.28825   0.28931   0.29060   0.29653   0.29950
 Alpha virt. eigenvalues --    0.30565   0.31281   0.32512   0.33325   0.34237
 Alpha virt. eigenvalues --    0.35223   0.37848   0.38003   0.38882   0.39409
 Alpha virt. eigenvalues --    0.39850   0.40822   0.41397   0.42032   0.42795
 Alpha virt. eigenvalues --    0.43656   0.44382   0.44868   0.45086   0.45622
 Alpha virt. eigenvalues --    0.45826   0.46148   0.46430   0.47017   0.47818
 Alpha virt. eigenvalues --    0.48044   0.48451   0.48816   0.49217   0.49430
 Alpha virt. eigenvalues --    0.49737   0.50193   0.50499   0.50927   0.51415
 Alpha virt. eigenvalues --    0.51608   0.51886   0.53642   0.53767   0.54083
 Alpha virt. eigenvalues --    0.54586   0.55806   0.56381   0.57363   0.57598
 Alpha virt. eigenvalues --    0.58321   0.58836   0.59171   0.59405   0.60103
 Alpha virt. eigenvalues --    0.61082   0.61794   0.62315   0.63589   0.64557
 Alpha virt. eigenvalues --    0.65242   0.65421   0.66257   0.66865   0.66944
 Alpha virt. eigenvalues --    0.67218   0.68131   0.68270   0.68723   0.68833
 Alpha virt. eigenvalues --    0.69087   0.69363   0.69820   0.69957   0.70259
 Alpha virt. eigenvalues --    0.70647   0.71103   0.71276   0.71730   0.72129
 Alpha virt. eigenvalues --    0.72512   0.72884   0.73083   0.73696   0.74113
 Alpha virt. eigenvalues --    0.74624   0.75737   0.76025   0.76503   0.76580
 Alpha virt. eigenvalues --    0.77387   0.77846   0.78424   0.78846   0.79329
 Alpha virt. eigenvalues --    0.80457   0.81370   0.81502   0.81744   0.83529
 Alpha virt. eigenvalues --    0.84733   0.85427   0.86349   0.86892   0.88006
 Alpha virt. eigenvalues --    0.89688   0.90125   0.91177   0.91614   0.92178
 Alpha virt. eigenvalues --    0.93913   0.94455   0.95286   0.97655   0.98168
 Alpha virt. eigenvalues --    0.98805   0.99783   1.00182   1.00947   1.01571
 Alpha virt. eigenvalues --    1.02773   1.03645   1.04385   1.04593   1.05774
 Alpha virt. eigenvalues --    1.06213   1.07244   1.07878   1.08076   1.08412
 Alpha virt. eigenvalues --    1.09200   1.09399   1.09973   1.10233   1.10823
 Alpha virt. eigenvalues --    1.11571   1.11806   1.12529   1.13068   1.13585
 Alpha virt. eigenvalues --    1.13961   1.14469   1.14625   1.14699   1.15576
 Alpha virt. eigenvalues --    1.16011   1.16783   1.17314   1.17862   1.18327
 Alpha virt. eigenvalues --    1.18542   1.18656   1.19153   1.19663   1.19772
 Alpha virt. eigenvalues --    1.20653   1.21084   1.21111   1.21980   1.22663
 Alpha virt. eigenvalues --    1.22786   1.23457   1.24317   1.24401   1.24837
 Alpha virt. eigenvalues --    1.25478   1.25613   1.26477   1.26772   1.27195
 Alpha virt. eigenvalues --    1.28072   1.28626   1.28819   1.29874   1.30482
 Alpha virt. eigenvalues --    1.31460   1.32202   1.33175   1.33760   1.34028
 Alpha virt. eigenvalues --    1.34399   1.35062   1.35442   1.35875   1.36260
 Alpha virt. eigenvalues --    1.37884   1.38621   1.38871   1.39812   1.40811
 Alpha virt. eigenvalues --    1.41380   1.42165   1.42360   1.42651   1.43281
 Alpha virt. eigenvalues --    1.43792   1.44761   1.44887   1.44920   1.45690
 Alpha virt. eigenvalues --    1.45850   1.46483   1.48163   1.48652   1.48807
 Alpha virt. eigenvalues --    1.50115   1.51083   1.51404   1.52790   1.53021
 Alpha virt. eigenvalues --    1.53612   1.54482   1.54830   1.55874   1.57001
 Alpha virt. eigenvalues --    1.57801   1.58482   1.58609   1.59058   1.59492
 Alpha virt. eigenvalues --    1.60428   1.61681   1.62158   1.63217   1.63435
 Alpha virt. eigenvalues --    1.63740   1.64748   1.66177   1.66811   1.67197
 Alpha virt. eigenvalues --    1.68197   1.68691   1.69581   1.70231   1.70780
 Alpha virt. eigenvalues --    1.71173   1.72053   1.73127   1.73239   1.73594
 Alpha virt. eigenvalues --    1.74078   1.75608   1.76043   1.76715   1.77602
 Alpha virt. eigenvalues --    1.78020   1.78257   1.78605   1.79252   1.80454
 Alpha virt. eigenvalues --    1.81046   1.82786   1.83124   1.85356   1.85807
 Alpha virt. eigenvalues --    1.86732   1.88278   1.88792   1.88937   1.89609
 Alpha virt. eigenvalues --    1.89721   1.90233   1.90514   1.90899   1.90981
 Alpha virt. eigenvalues --    1.91349   1.91760   1.92232   1.92449   1.94181
 Alpha virt. eigenvalues --    1.94280   1.94612   1.95497   1.96234   1.96356
 Alpha virt. eigenvalues --    1.96894   1.97708   1.98504   1.99980   2.00349
 Alpha virt. eigenvalues --    2.00637   2.00848   2.01928   2.02234   2.02831
 Alpha virt. eigenvalues --    2.03276   2.04044   2.04914   2.05119   2.06651
 Alpha virt. eigenvalues --    2.06830   2.07670   2.08032   2.09241   2.09900
 Alpha virt. eigenvalues --    2.10573   2.11232   2.12134   2.12405   2.13116
 Alpha virt. eigenvalues --    2.13362   2.13912   2.14185   2.14928   2.15580
 Alpha virt. eigenvalues --    2.16505   2.17756   2.20258   2.21004   2.21266
 Alpha virt. eigenvalues --    2.21881   2.23348   2.25761   2.27162   2.28270
 Alpha virt. eigenvalues --    2.29181   2.29814   2.30253   2.31031   2.32626
 Alpha virt. eigenvalues --    2.33749   2.36881   2.37810   2.42728   2.43979
 Alpha virt. eigenvalues --    2.46825   2.48144   2.51420   2.52537   2.54703
 Alpha virt. eigenvalues --    2.55125   2.56913   2.57185   2.59816   2.60921
 Alpha virt. eigenvalues --    2.61561   2.61728   2.62566   2.62722   2.62886
 Alpha virt. eigenvalues --    2.63254   2.64345   2.64691   2.64902   2.65131
 Alpha virt. eigenvalues --    2.65450   2.65776   2.66228   2.66394   2.66685
 Alpha virt. eigenvalues --    2.67829   2.68354   2.68787   2.69356   2.69721
 Alpha virt. eigenvalues --    2.70809   2.72054   2.72408   2.72581   2.73538
 Alpha virt. eigenvalues --    2.74109   2.74364   2.75102   2.75863   2.76024
 Alpha virt. eigenvalues --    2.76672   2.77981   2.78299   2.78508   2.79573
 Alpha virt. eigenvalues --    2.80170   2.81136   2.81498   2.82136   2.82411
 Alpha virt. eigenvalues --    2.82618   2.85638   2.86271   2.88980   2.89363
 Alpha virt. eigenvalues --    2.89833   2.90937   2.93787   2.95895   2.96750
 Alpha virt. eigenvalues --    2.97177   2.97720   2.97948   2.98062   2.98414
 Alpha virt. eigenvalues --    2.98904   2.99500   2.99783   2.99908   3.01229
 Alpha virt. eigenvalues --    3.02733   3.02989   3.03299   3.03482   3.03703
 Alpha virt. eigenvalues --    3.03970   3.04005   3.04234   3.04327   3.04390
 Alpha virt. eigenvalues --    3.04666   3.04762   3.04883   3.05101   3.05253
 Alpha virt. eigenvalues --    3.05372   3.06343   3.06516   3.06673   3.07680
 Alpha virt. eigenvalues --    3.08134   3.09273   3.10248   3.10815   3.13215
 Alpha virt. eigenvalues --    3.14760   3.14980   3.15296   3.15427   3.15896
 Alpha virt. eigenvalues --    3.16145   3.16246   3.16383   3.17765   3.23051
 Alpha virt. eigenvalues --    3.24432   3.24924   3.25365   3.26859   3.28044
 Alpha virt. eigenvalues --    3.31880   3.34998   3.38110   3.38782   3.39333
 Alpha virt. eigenvalues --    3.39512   3.39774   3.39973   3.40942   3.41361
 Alpha virt. eigenvalues --    3.41756   3.43208   3.46006   3.49114   3.51721
 Alpha virt. eigenvalues --    3.52176   3.52180   3.52406   3.52730   3.52889
 Alpha virt. eigenvalues --    3.53727   3.56007   3.60741   3.64517   3.65564
 Alpha virt. eigenvalues --    3.66196   3.66557   3.67056   3.67529   3.67690
 Alpha virt. eigenvalues --    3.82091   3.82559   3.82719   3.82876   3.83382
 Alpha virt. eigenvalues --    3.84179   6.46327   6.48920   6.52489   6.53598
 Alpha virt. eigenvalues --    6.56758   7.90593   7.92477   7.94519   7.98341
 Alpha virt. eigenvalues --    8.00262   8.02432   8.05291   9.67490  13.95202
 Alpha virt. eigenvalues --   14.00059  14.01335  24.88158  84.96807  91.99864
 Alpha virt. eigenvalues --   92.13092  92.16738 314.03379 713.78668
  Beta  occ. eigenvalues --  -88.05001 -88.03397 -88.03173 -24.33976 -24.33752
  Beta  occ. eigenvalues --  -24.33655 -24.32785 -24.32622 -24.32582 -24.32473
  Beta  occ. eigenvalues --  -24.32402 -24.32360 -18.93632 -18.90529 -18.90389
  Beta  occ. eigenvalues --  -18.85933 -18.85884 -18.82985 -18.82812 -18.82692
  Beta  occ. eigenvalues --  -18.81315 -18.81302 -18.81211 -18.80983 -18.80806
  Beta  occ. eigenvalues --  -18.80373 -16.29760 -10.93163 -10.93104 -10.92955
  Beta  occ. eigenvalues --  -10.32806 -10.31362 -10.31092 -10.24538 -10.24391
  Beta  occ. eigenvalues --  -10.21807 -10.21472 -10.12482 -10.11781 -10.11693
  Beta  occ. eigenvalues --  -10.11637 -10.11364 -10.11228 -10.09509 -10.09338
  Beta  occ. eigenvalues --   -7.94748  -7.93151  -7.92922  -6.14247  -6.14214
  Beta  occ. eigenvalues --   -6.14164  -6.12643  -6.12624  -6.12570  -6.12423
  Beta  occ. eigenvalues --   -6.12393  -6.12339  -5.01433  -5.01421  -5.01362
  Beta  occ. eigenvalues --   -5.01084  -5.01048  -1.96484  -1.37441  -1.36227
  Beta  occ. eigenvalues --   -1.35982  -1.27468  -1.27399  -1.26241  -1.26228
  Beta  occ. eigenvalues --   -1.25981  -1.25953  -1.23095  -1.19223  -1.18964
  Beta  occ. eigenvalues --   -1.18611  -1.17521  -1.17306  -1.10245  -1.09098
  Beta  occ. eigenvalues --   -1.05835  -1.05049  -1.04472  -1.04204  -1.03201
  Beta  occ. eigenvalues --   -1.02887  -1.00913  -1.00671  -1.00308  -0.94715
  Beta  occ. eigenvalues --   -0.86676  -0.84652  -0.82781  -0.81505  -0.79517
  Beta  occ. eigenvalues --   -0.78170  -0.77876  -0.76163  -0.75150  -0.71639
  Beta  occ. eigenvalues --   -0.70338  -0.70054  -0.69327  -0.68054  -0.67462
  Beta  occ. eigenvalues --   -0.67341  -0.66262  -0.66212  -0.66007  -0.65976
  Beta  occ. eigenvalues --   -0.65914  -0.63223  -0.63078  -0.62445  -0.60947
  Beta  occ. eigenvalues --   -0.60897  -0.59345  -0.59169  -0.58602  -0.57510
  Beta  occ. eigenvalues --   -0.57066  -0.56780  -0.56630  -0.55810  -0.55551
  Beta  occ. eigenvalues --   -0.55011  -0.54509  -0.54369  -0.54237  -0.54103
  Beta  occ. eigenvalues --   -0.53830  -0.53392  -0.52951  -0.52548  -0.52307
  Beta  occ. eigenvalues --   -0.52288  -0.51869  -0.51697  -0.51576  -0.51493
  Beta  occ. eigenvalues --   -0.51316  -0.51130  -0.50919  -0.50405  -0.50061
  Beta  occ. eigenvalues --   -0.50028  -0.49941  -0.49802  -0.49560  -0.48924
  Beta  occ. eigenvalues --   -0.48594  -0.47854  -0.47611  -0.47591  -0.46182
  Beta  occ. eigenvalues --   -0.46026  -0.44132  -0.43886  -0.43029  -0.42901
  Beta  occ. eigenvalues --   -0.42498  -0.42130  -0.41692  -0.41394  -0.41115
  Beta  occ. eigenvalues --   -0.40646  -0.40244  -0.39772  -0.39140  -0.38509
  Beta  occ. eigenvalues --   -0.38308  -0.38210  -0.37282  -0.37029  -0.36865
  Beta  occ. eigenvalues --   -0.36689  -0.36569  -0.35926  -0.35600  -0.35004
  Beta  occ. eigenvalues --   -0.34657  -0.34336  -0.33308  -0.33232  -0.33055
  Beta  occ. eigenvalues --   -0.27981  -0.27907  -0.27788  -0.27627  -0.27543
  Beta  occ. eigenvalues --   -0.27411  -0.26728
  Beta virt. eigenvalues --   -0.20181  -0.09847  -0.01389  -0.01120   0.01030
  Beta virt. eigenvalues --    0.06339   0.07892   0.08364   0.08871   0.09460
  Beta virt. eigenvalues --    0.09943   0.10185   0.10495   0.10747   0.11111
  Beta virt. eigenvalues --    0.11676   0.12149   0.12252   0.12686   0.13220
  Beta virt. eigenvalues --    0.13413   0.13557   0.14302   0.14485   0.14806
  Beta virt. eigenvalues --    0.15443   0.15682   0.16081   0.16487   0.16834
  Beta virt. eigenvalues --    0.17148   0.17263   0.17453   0.17788   0.18242
  Beta virt. eigenvalues --    0.18529   0.18902   0.19256   0.19492   0.20056
  Beta virt. eigenvalues --    0.20281   0.20750   0.21875   0.22017   0.22220
  Beta virt. eigenvalues --    0.24349   0.24430   0.25117   0.25771   0.26237
  Beta virt. eigenvalues --    0.26757   0.26911   0.27318   0.27425   0.27633
  Beta virt. eigenvalues --    0.28526   0.28830   0.28919   0.29055   0.29676
  Beta virt. eigenvalues --    0.29997   0.30543   0.31207   0.32547   0.33504
  Beta virt. eigenvalues --    0.34295   0.35306   0.37907   0.38112   0.38934
  Beta virt. eigenvalues --    0.39408   0.39821   0.40792   0.41524   0.42024
  Beta virt. eigenvalues --    0.42972   0.43749   0.44596   0.44918   0.45182
  Beta virt. eigenvalues --    0.45662   0.45874   0.46234   0.46428   0.47000
  Beta virt. eigenvalues --    0.47970   0.48116   0.48626   0.48860   0.49303
  Beta virt. eigenvalues --    0.49442   0.49931   0.50295   0.50681   0.51042
  Beta virt. eigenvalues --    0.51482   0.51705   0.51988   0.53888   0.54190
  Beta virt. eigenvalues --    0.54320   0.54701   0.55945   0.56328   0.57291
  Beta virt. eigenvalues --    0.57660   0.58304   0.59006   0.59190   0.59411
  Beta virt. eigenvalues --    0.60192   0.61022   0.61986   0.62453   0.63818
  Beta virt. eigenvalues --    0.64616   0.65279   0.65506   0.66352   0.66825
  Beta virt. eigenvalues --    0.66912   0.67426   0.68051   0.68302   0.68782
  Beta virt. eigenvalues --    0.68843   0.69154   0.69439   0.69843   0.70071
  Beta virt. eigenvalues --    0.70280   0.70848   0.71182   0.71382   0.71779
  Beta virt. eigenvalues --    0.72141   0.72555   0.72900   0.73234   0.73740
  Beta virt. eigenvalues --    0.74188   0.74468   0.75715   0.76211   0.76564
  Beta virt. eigenvalues --    0.76813   0.77338   0.77839   0.78594   0.78890
  Beta virt. eigenvalues --    0.79380   0.80439   0.81271   0.81537   0.82075
  Beta virt. eigenvalues --    0.83545   0.84908   0.85550   0.86449   0.87067
  Beta virt. eigenvalues --    0.88102   0.89803   0.90154   0.91106   0.91770
  Beta virt. eigenvalues --    0.92249   0.93959   0.94523   0.95300   0.97719
  Beta virt. eigenvalues --    0.98193   0.98902   0.99803   1.00256   1.00981
  Beta virt. eigenvalues --    1.01612   1.02864   1.03756   1.04463   1.04606
  Beta virt. eigenvalues --    1.05837   1.06268   1.07323   1.07938   1.08093
  Beta virt. eigenvalues --    1.08474   1.09230   1.09431   1.09995   1.10254
  Beta virt. eigenvalues --    1.10851   1.11661   1.11820   1.12560   1.13078
  Beta virt. eigenvalues --    1.13592   1.13995   1.14471   1.14630   1.14735
  Beta virt. eigenvalues --    1.15665   1.16025   1.16832   1.17355   1.17951
  Beta virt. eigenvalues --    1.18382   1.18578   1.18638   1.19164   1.19699
  Beta virt. eigenvalues --    1.19817   1.20720   1.21124   1.21145   1.22029
  Beta virt. eigenvalues --    1.22792   1.22912   1.23547   1.24364   1.24448
  Beta virt. eigenvalues --    1.24959   1.25659   1.25721   1.26565   1.26842
  Beta virt. eigenvalues --    1.27296   1.28036   1.28708   1.28856   1.29884
  Beta virt. eigenvalues --    1.30522   1.31493   1.32216   1.33197   1.33898
  Beta virt. eigenvalues --    1.34053   1.34426   1.35158   1.35498   1.35930
  Beta virt. eigenvalues --    1.36346   1.37997   1.38649   1.38823   1.39898
  Beta virt. eigenvalues --    1.40912   1.41470   1.42195   1.42404   1.42693
  Beta virt. eigenvalues --    1.43288   1.43794   1.44823   1.44905   1.44931
  Beta virt. eigenvalues --    1.45709   1.45886   1.46469   1.48146   1.48648
  Beta virt. eigenvalues --    1.48837   1.50137   1.51033   1.51426   1.52725
  Beta virt. eigenvalues --    1.53022   1.53607   1.54420   1.54826   1.55824
  Beta virt. eigenvalues --    1.56954   1.57800   1.58486   1.58614   1.59067
  Beta virt. eigenvalues --    1.59501   1.60462   1.61677   1.62266   1.63157
  Beta virt. eigenvalues --    1.63418   1.63871   1.64765   1.66236   1.66710
  Beta virt. eigenvalues --    1.67670   1.68006   1.68794   1.69793   1.70269
  Beta virt. eigenvalues --    1.70827   1.71079   1.72087   1.73113   1.73304
  Beta virt. eigenvalues --    1.73662   1.74198   1.75590   1.76142   1.77234
  Beta virt. eigenvalues --    1.77766   1.78084   1.78270   1.78676   1.79571
  Beta virt. eigenvalues --    1.80335   1.81022   1.82790   1.83162   1.85461
  Beta virt. eigenvalues --    1.86190   1.86809   1.88297   1.88802   1.88941
  Beta virt. eigenvalues --    1.89611   1.89737   1.90237   1.90504   1.90912
  Beta virt. eigenvalues --    1.91044   1.91427   1.91776   1.92366   1.92512
  Beta virt. eigenvalues --    1.94132   1.94326   1.94583   1.95426   1.96233
  Beta virt. eigenvalues --    1.96349   1.96740   1.97719   1.98536   2.00017
  Beta virt. eigenvalues --    2.00342   2.00756   2.00986   2.02159   2.02347
  Beta virt. eigenvalues --    2.02853   2.03282   2.04075   2.04825   2.05045
  Beta virt. eigenvalues --    2.06287   2.07060   2.07974   2.08466   2.09162
  Beta virt. eigenvalues --    2.10125   2.10892   2.11240   2.12070   2.12359
  Beta virt. eigenvalues --    2.13271   2.13583   2.13963   2.14193   2.15198
  Beta virt. eigenvalues --    2.15757   2.16529   2.17757   2.20772   2.21086
  Beta virt. eigenvalues --    2.21278   2.21570   2.22727   2.25800   2.27118
  Beta virt. eigenvalues --    2.28444   2.29390   2.29758   2.30343   2.31070
  Beta virt. eigenvalues --    2.32722   2.33668   2.36364   2.37651   2.42344
  Beta virt. eigenvalues --    2.43562   2.46661   2.48290   2.51773   2.52561
  Beta virt. eigenvalues --    2.54305   2.55060   2.56925   2.57190   2.59910
  Beta virt. eigenvalues --    2.60996   2.61568   2.61730   2.62577   2.62774
  Beta virt. eigenvalues --    2.62954   2.63336   2.64467   2.64737   2.64918
  Beta virt. eigenvalues --    2.65161   2.65460   2.65791   2.66238   2.66366
  Beta virt. eigenvalues --    2.66731   2.67349   2.68097   2.68415   2.69383
  Beta virt. eigenvalues --    2.69731   2.70816   2.72057   2.72424   2.72559
  Beta virt. eigenvalues --    2.73552   2.74116   2.74277   2.74512   2.75809
  Beta virt. eigenvalues --    2.76028   2.76670   2.78007   2.78284   2.78530
  Beta virt. eigenvalues --    2.79384   2.80157   2.81146   2.81486   2.82120
  Beta virt. eigenvalues --    2.82403   2.82617   2.85674   2.86297   2.89009
  Beta virt. eigenvalues --    2.89396   2.89760   2.90673   2.93762   2.95899
  Beta virt. eigenvalues --    2.96756   2.97174   2.97635   2.97922   2.98052
  Beta virt. eigenvalues --    2.98413   2.98892   2.99495   2.99696   2.99783
  Beta virt. eigenvalues --    3.01078   3.02619   3.02969   3.03296   3.03476
  Beta virt. eigenvalues --    3.03565   3.03968   3.03985   3.04232   3.04327
  Beta virt. eigenvalues --    3.04387   3.04665   3.04757   3.04872   3.05089
  Beta virt. eigenvalues --    3.05204   3.05329   3.06146   3.06448   3.06517
  Beta virt. eigenvalues --    3.07652   3.08101   3.09248   3.09992   3.10688
  Beta virt. eigenvalues --    3.13088   3.14636   3.14981   3.15285   3.15425
  Beta virt. eigenvalues --    3.15894   3.16145   3.16247   3.16379   3.17767
  Beta virt. eigenvalues --    3.23021   3.24302   3.24808   3.25326   3.26859
  Beta virt. eigenvalues --    3.28032   3.31838   3.34855   3.38107   3.38776
  Beta virt. eigenvalues --    3.39323   3.39502   3.39724   3.39941   3.40891
  Beta virt. eigenvalues --    3.41230   3.41743   3.43125   3.45635   3.48547
  Beta virt. eigenvalues --    3.51721   3.52172   3.52176   3.52401   3.52495
  Beta virt. eigenvalues --    3.52873   3.53660   3.55978   3.60478   3.64291
  Beta virt. eigenvalues --    3.65304   3.65895   3.66551   3.67055   3.67516
  Beta virt. eigenvalues --    3.67615   3.82091   3.82559   3.82719   3.82876
  Beta virt. eigenvalues --    3.83382   3.84179   6.46342   6.48930   6.52488
  Beta virt. eigenvalues --    6.53623   6.56756   7.90599   7.92456   7.94459
  Beta virt. eigenvalues --    7.98386   8.00401   8.02395   8.05309   9.67482
  Beta virt. eigenvalues --   13.95190  14.00047  14.01323  24.87964  84.96685
  Beta virt. eigenvalues --   91.99746  92.12962  92.16614 314.03377 713.78446
          Condensed to atoms (all electrons):
          Atomic-Atomic Spin Densities.
 Mulliken charges and spin densities:
               1          2
     1  C    0.059675   0.124602
     2  C    0.092797   0.054312
     3  C    0.022897  -0.036822
     4  C    0.090272   0.198285
     5  C    0.030687  -0.054134
     6  C    0.083079   0.079663
     7  C    0.137935  -0.097957
     8  C    0.055520   0.617381
     9  O   -0.172568   0.055145
    10  C    0.227956  -0.078249
    11  C    0.304602  -0.085028
    12  H    0.048485  -0.003670
    13  H    0.050474   0.001551
    14  H    0.068145  -0.012277
    15  H    0.047305   0.002666
    16  H    0.008098  -0.005389
    17  H    0.117821   0.012985
    18  O   -0.194189   0.079842
    19  O   -0.173407   0.073120
    20  Yb   0.497302   0.034970
    21  O   -0.253277   0.013251
    22  O   -0.260824   0.010764
    23  C    0.166457  -0.000072
    24  C    0.165117  -0.000684
    25  H    0.073456   0.000027
    26  H    0.054406   0.001314
    27  H    0.071075   0.001034
    28  H    0.067630   0.000065
    29  H    0.079868   0.001110
    30  H    0.045019   0.001139
    31  O   -0.470235   0.000681
    32  O   -0.445121   0.001988
    33  O   -0.465102   0.000785
    34  S    0.836570  -0.000117
    35  S    0.837574  -0.000098
    36  S    0.818037   0.000596
    37  O   -0.482138   0.000368
    38  O   -0.446854   0.000337
    39  O   -0.467383   0.000202
    40  O   -0.447438   0.000010
    41  O   -0.469930   0.005677
    42  O   -0.447626   0.000383
    43  C    0.425886   0.000112
    44  C    0.405156   0.000034
    45  C    0.405087  -0.000028
    46  F   -0.130594   0.000027
    47  F   -0.125344   0.000022
    48  F   -0.127579   0.000076
    49  F   -0.135377   0.000000
    50  F   -0.138950   0.000001
    51  F   -0.135491   0.000006
    52  F   -0.124585  -0.000007
    53  F   -0.139052  -0.000001
    54  F   -0.141326   0.000001
 Sum of Mulliken charges =  -0.00000   1.00000
 Mulliken charges and spin densities with hydrogens summed into heavy atoms:
               1          2
     1  C    0.059675   0.124602
     2  C    0.141282   0.050643
     3  C    0.073371  -0.035271
     4  C    0.158418   0.186008
     5  C    0.077991  -0.051468
     6  C    0.091177   0.074274
     7  C    0.255756  -0.084972
     8  C    0.055520   0.617381
     9  O   -0.172568   0.055145
    10  C    0.227956  -0.078249
    11  C    0.304602  -0.085028
    18  O   -0.194189   0.079842
    19  O   -0.173407   0.073120
    20  Yb   0.497302   0.034970
    21  O   -0.253277   0.013251
    22  O   -0.260824   0.010764
    23  C    0.365396   0.002304
    24  C    0.357635   0.001631
    31  O   -0.470235   0.000681
    32  O   -0.445121   0.001988
    33  O   -0.465102   0.000785
    34  S    0.836570  -0.000117
    35  S    0.837574  -0.000098
    36  S    0.818037   0.000596
    37  O   -0.482138   0.000368
    38  O   -0.446854   0.000337
    39  O   -0.467383   0.000202
    40  O   -0.447438   0.000010
    41  O   -0.469930   0.005677
    42  O   -0.447626   0.000383
    43  C    0.425886   0.000112
    44  C    0.405156   0.000034
    45  C    0.405087  -0.000028
    46  F   -0.130594   0.000027
    47  F   -0.125344   0.000022
    48  F   -0.127579   0.000076
    49  F   -0.135377   0.000000
    50  F   -0.138950   0.000001
    51  F   -0.135491   0.000006
    52  F   -0.124585  -0.000007
    53  F   -0.139052  -0.000001
    54  F   -0.141326   0.000001
 APT charges:
               1
     1  C   -0.313670
     2  C   -0.572791
     3  C   -0.477315
     4  C   -0.524107
     5  C   -0.382077
     6  C   -0.334604
     7  C   -0.195214
     8  C   -0.038195
     9  O    0.338165
    10  C   -0.140209
    11  C   -0.092411
    12  H    0.441460
    13  H    1.111511
    14  H    1.226200
    15  H    0.674946
    16  H   -0.048181
    17  H    0.148579
    18  O   -0.560147
    19  O   -0.565684
    20  Yb   0.475230
    21  O    0.271234
    22  O    0.245585
    23  C   -0.741998
    24  C   -0.717173
    25  H    1.062652
    26  H   -0.126830
    27  H    0.287809
    28  H    0.926598
    29  H    0.450470
    30  H   -0.224652
    31  O   -0.730308
    32  O   -0.412076
    33  O   -0.699491
    34  S   -0.075122
    35  S    0.047812
    36  S    0.155696
    37  O   -0.608725
    38  O    0.785850
    39  O   -0.463998
    40  O    0.404779
    41  O   -0.605696
    42  O    0.109665
    43  C   -0.574459
    44  C   -0.654963
    45  C   -0.637942
    46  F    0.300447
    47  F   -0.067641
    48  F    0.531191
    49  F   -0.156966
    50  F    0.388960
    51  F    0.628133
    52  F   -0.351770
    53  F    0.607841
    54  F    0.473602
 Sum of APT charges =  -0.00000
 APT charges with hydrogens summed into heavy atoms:
               1
     1  C   -0.313670
     2  C   -0.131331
     3  C    0.634197
     4  C    0.702094
     5  C    0.292869
     6  C   -0.382785
     7  C   -0.046635
     8  C   -0.038195
     9  O    0.338165
    10  C   -0.140209
    11  C   -0.092411
    18  O   -0.560147
    19  O   -0.565684
    20  Yb   0.475230
    21  O    0.271234
    22  O    0.245585
    23  C    0.481632
    24  C    0.435244
    31  O   -0.730308
    32  O   -0.412076
    33  O   -0.699491
    34  S   -0.075122
    35  S    0.047812
    36  S    0.155696
    37  O   -0.608725
    38  O    0.785850
    39  O   -0.463998
    40  O    0.404779
    41  O   -0.605696
    42  O    0.109665
    43  C   -0.574459
    44  C   -0.654963
    45  C   -0.637942
    46  F    0.300447
    47  F   -0.067641
    48  F    0.531191
    49  F   -0.156966
    50  F    0.388960
    51  F    0.628133
    52  F   -0.351770
    53  F    0.607841
    54  F    0.473602
 Electronic spatial extent (au):  <R**2>=          22249.7569
 Charge=             -0.0000 electrons
 Dipole moment (field-independent basis, Debye):
    X=            -28.7746    Y=             -6.0642    Z=             -3.8264  Tot=             29.6546
 Quadrupole moment (field-independent basis, Debye-Ang):
   XX=           -225.9901   YY=           -272.1607   ZZ=           -262.3743
   XY=            -14.1224   XZ=             21.8660   YZ=             11.0559
 Traceless Quadrupole moment (field-independent basis, Debye-Ang):
   XX=             27.5183   YY=            -18.6523   ZZ=             -8.8659
   XY=            -14.1224   XZ=             21.8660   YZ=             11.0559
 Octapole moment (field-independent basis, Debye-Ang**2):
  XXX=           -588.1861  YYY=           -159.5315  ZZZ=             16.9375  XYY=             11.6559
  XXY=            112.6752  XXZ=             18.2486  XZZ=            -27.8877  YZZ=             33.9029
  YYZ=              4.4045  XYZ=             24.5740
 Hexadecapole moment (field-independent basis, Debye-Ang**3):
 XXXX=         -11432.4421 YYYY=          -8188.8512 ZZZZ=          -4398.5213 XXXY=           -660.9781
 XXXZ=            208.7679 YYYX=           -103.5778 YYYZ=            274.3166 ZZZX=             36.7084
 ZZZY=             -8.1731 XXYY=          -3468.5672 XXZZ=          -2798.3124 YYZZ=          -2184.9207
 XXYZ=            -49.7873 YYXZ=             57.1984 ZZXY=           -114.4031
 N-N= 8.772114732129D+03 E-N=-2.919503762099D+04  KE= 4.440325547966D+03
  Exact polarizability:   0.000   0.000   0.000   0.000   0.000   0.000
 Approx polarizability: 493.725 -47.252 359.131  -8.576  13.135 350.076
                          Isotropic Fermi Contact Couplings
        Atom                 a.u.       MegaHertz       Gauss      10(-4) cm-1
     1  C(13)              0.01425      16.01958       5.71619       5.34356
     2  C(13)              0.00480       5.39650       1.92561       1.80008
     3  C(13)             -0.01072     -12.04786      -4.29898      -4.01873
     4  C(13)              0.03310      37.20545      13.27583      12.41040
     5  C(13)             -0.01369     -15.38745      -5.49062      -5.13270
     6  C(13)              0.00898      10.09690       3.60282       3.36796
     7  C(13)              0.00505       5.68004       2.02678       1.89466
     8  C(13)              0.09224     103.69943      37.00253      34.59041
     9  O(17)              0.03246     -19.67561      -7.02075      -6.56308
    10  C(13)             -0.03463     -38.93011     -13.89123     -12.98569
    11  C(13)             -0.04047     -45.49923     -16.23526     -15.17691
    12  H(1)              -0.00104      -4.66264      -1.66375      -1.55529
    13  H(1)               0.00045       2.01942       0.72058       0.67361
    14  H(1)              -0.00337     -15.07978      -5.38084      -5.03007
    15  H(1)               0.00076       3.38119       1.20649       1.12785
    16  H(1)              -0.00147      -6.56860      -2.34384      -2.19105
    17  H(1)               0.00564      25.20035       8.99211       8.40593
    18  O(17)              0.00704      -4.26562      -1.52208      -1.42286
    19  O(17)              0.00615      -3.72509      -1.32921      -1.24256
    20  Yb(171            -0.00037      -0.29477      -0.10518      -0.09833
    21  O(17)              0.00031      -0.18872      -0.06734      -0.06295
    22  O(17)              0.00072      -0.43812      -0.15633      -0.14614
    23  C(13)             -0.00095      -1.06807      -0.38112      -0.35627
    24  C(13)             -0.00089      -1.00065      -0.35706      -0.33378
    25  H(1)               0.00001       0.06487       0.02315       0.02164
    26  H(1)               0.00077       3.45455       1.23267       1.15231
    27  H(1)               0.00056       2.51277       0.89662       0.83817
    28  H(1)               0.00001       0.05718       0.02040       0.01907
    29  H(1)               0.00061       2.73455       0.97575       0.91215
    30  H(1)               0.00066       2.94253       1.04997       0.98152
    31  O(17)              0.00021      -0.12988      -0.04635      -0.04332
    32  O(17)              0.00054      -0.33007      -0.11778      -0.11010
    33  O(17)              0.00128      -0.77373      -0.27609      -0.25809
    34  S(33)             -0.00018      -0.06337      -0.02261      -0.02114
    35  S(33)             -0.00007      -0.02368      -0.00845      -0.00790
    36  S(33)             -0.00051      -0.17419      -0.06216      -0.05810
    37  O(17)              0.00029      -0.17628      -0.06290      -0.05880
    38  O(17)             -0.00001       0.00610       0.00218       0.00204
    39  O(17)             -0.00002       0.01414       0.00505       0.00472
    40  O(17)              0.00002      -0.01069      -0.00381      -0.00357
    41  O(17)              0.00484      -2.93166      -1.04609      -0.97790
    42  O(17)              0.00054      -0.32664      -0.11655      -0.10896
    43  C(13)             -0.00005      -0.05751      -0.02052      -0.01918
    44  C(13)              0.00005       0.05124       0.01828       0.01709
    45  C(13)             -0.00002      -0.01709      -0.00610      -0.00570
    46  F(19)             -0.00011      -0.44779      -0.15978      -0.14937
    47  F(19)             -0.00001      -0.03703      -0.01321      -0.01235
    48  F(19)              0.00009       0.38289       0.13663       0.12772
    49  F(19)             -0.00001      -0.02492      -0.00889      -0.00831
    50  F(19)             -0.00000      -0.00815      -0.00291      -0.00272
    51  F(19)             -0.00000      -0.00447      -0.00159      -0.00149
    52  F(19)             -0.00008      -0.34636      -0.12359      -0.11553
    53  F(19)             -0.00000      -0.01843      -0.00658      -0.00615
    54  F(19)             -0.00000      -0.00841      -0.00300      -0.00281
 --------------------------------------------------------
       Center         ----  Spin Dipole Couplings  ----
                      3XX-RR        3YY-RR        3ZZ-RR
 --------------------------------------------------------
     1   Atom        0.023008      0.035103     -0.058110
     2   Atom        0.017575      0.010109     -0.027683
     3   Atom       -0.005604     -0.004693      0.010297
     4   Atom        0.062959      0.031487     -0.094446
     5   Atom       -0.007822     -0.006845      0.014668
     6   Atom        0.028684      0.007599     -0.036283
     7   Atom       -0.066508      0.027695      0.038813
     8   Atom       -0.208426     -0.262287      0.470713
     9   Atom       -0.223635      0.056306      0.167330
    10   Atom        0.006230      0.009059     -0.015288
    11   Atom        0.007601      0.015600     -0.023202
    12   Atom       -0.000766     -0.004170      0.004936
    13   Atom       -0.001098     -0.001734      0.002833
    14   Atom        0.005061      0.004711     -0.009772
    15   Atom       -0.000764     -0.000925      0.001690
    16   Atom       -0.001171     -0.001913      0.003083
    17   Atom       -0.000483     -0.006066      0.006549
    18   Atom       -0.099055     -0.117155      0.216211
    19   Atom       -0.069860     -0.138769      0.208630
    20   Atom        0.035643     -0.108008      0.072366
    21   Atom       -0.012921     -0.016911      0.029832
    22   Atom       -0.022319     -0.004305      0.026623
    23   Atom       -0.002527      0.000911      0.001616
    24   Atom       -0.001970      0.001354      0.000616
    25   Atom       -0.000963      0.002042     -0.001079
    26   Atom       -0.001116      0.001318     -0.000202
    27   Atom        0.000247      0.001459     -0.001706
    28   Atom       -0.000652      0.001158     -0.000506
    29   Atom       -0.000920      0.001022     -0.000102
    30   Atom       -0.000828      0.002414     -0.001586
    31   Atom       -0.002247      0.002104      0.000142
    32   Atom       -0.004914      0.002671      0.002242
    33   Atom        0.004596     -0.002648     -0.001948
    34   Atom        0.001410     -0.000863     -0.000548
    35   Atom       -0.000385      0.001288     -0.000903
    36   Atom       -0.001460     -0.001344      0.002804
    37   Atom        0.002921     -0.001538     -0.001383
    38   Atom        0.000290     -0.001025      0.000734
    39   Atom       -0.000141      0.001459     -0.001318
    40   Atom       -0.000304      0.001054     -0.000749
    41   Atom       -0.010481     -0.003104      0.013585
    42   Atom       -0.002051      0.000130      0.001921
    43   Atom       -0.000497     -0.000980      0.001477
    44   Atom       -0.000135      0.000434     -0.000299
    45   Atom        0.001000     -0.000455     -0.000546
    46   Atom       -0.000709     -0.001158      0.001867
    47   Atom       -0.000422     -0.000654      0.001076
    48   Atom       -0.000714     -0.000930      0.001644
    49   Atom       -0.000074      0.000207     -0.000133
    50   Atom       -0.000174      0.000381     -0.000207
    51   Atom       -0.000006      0.000274     -0.000267
    52   Atom        0.001080     -0.000457     -0.000622
    53   Atom        0.000534     -0.000274     -0.000260
    54   Atom        0.000833     -0.000330     -0.000502
 --------------------------------------------------------
                        XY            XZ            YZ
 --------------------------------------------------------
     1   Atom        0.098336      0.018266      0.020619
     2   Atom        0.042488      0.002682     -0.001380
     3   Atom       -0.012197     -0.002916     -0.000295
     4   Atom        0.138080      0.012538      0.013853
     5   Atom       -0.025156     -0.002350     -0.004510
     6   Atom        0.062189     -0.003945     -0.004307
     7   Atom       -0.037026     -0.008004      0.024781
     8   Atom       -0.092098     -0.318213      0.217546
     9   Atom       -0.062673     -0.033970      0.273135
    10   Atom       -0.002394      0.026033     -0.010185
    11   Atom        0.011003      0.013115     -0.011850
    12   Atom       -0.000456      0.001072     -0.000616
    13   Atom       -0.000954      0.000519     -0.000870
    14   Atom       -0.006860     -0.005431      0.006536
    15   Atom       -0.001475      0.000694     -0.001249
    16   Atom       -0.000579      0.002699     -0.005649
    17   Atom        0.003312     -0.003896     -0.003201
    18   Atom       -0.038532     -0.139215      0.110188
    19   Atom        0.006445     -0.145233     -0.019344
    20   Atom       -0.062335      0.049899      0.062927
    21   Atom        0.002625     -0.028225     -0.014513
    22   Atom       -0.004567     -0.000233      0.016608
    23   Atom       -0.001061     -0.000223     -0.001766
    24   Atom       -0.001083     -0.000634     -0.000123
    25   Atom       -0.000562      0.000241     -0.000576
    26   Atom       -0.000904      0.000926     -0.001453
    27   Atom       -0.001832      0.000164     -0.000159
    28   Atom       -0.000661      0.000119     -0.001447
    29   Atom        0.000220     -0.000311     -0.002055
    30   Atom       -0.000237      0.000132     -0.000583
    31   Atom        0.001001      0.000901      0.003876
    32   Atom        0.000553      0.001389      0.005831
    33   Atom        0.000794     -0.002220     -0.000035
    34   Atom        0.000020      0.000410      0.000073
    35   Atom        0.000868      0.000263      0.000448
    36   Atom       -0.000265      0.000823     -0.001401
    37   Atom        0.000676      0.001166      0.000101
    38   Atom        0.000123      0.000790      0.000098
    39   Atom        0.001834      0.000075     -0.000416
    40   Atom        0.000663      0.000021     -0.000002
    41   Atom        0.009552      0.012160      0.023579
    42   Atom       -0.001587      0.001055     -0.003264
    43   Atom       -0.000085      0.000269      0.000109
    44   Atom        0.000469      0.000209      0.000385
    45   Atom       -0.000450      0.000362     -0.000069
    46   Atom       -0.000089      0.000159      0.000246
    47   Atom       -0.000011      0.000464      0.000400
    48   Atom       -0.000094     -0.000014      0.000024
    49   Atom        0.000439      0.000310      0.000467
    50   Atom        0.000282      0.000114      0.000329
    51   Atom        0.000406      0.000137      0.000183
    52   Atom       -0.000891      0.000834     -0.000335
    53   Atom       -0.000257      0.000299     -0.000072
    54   Atom       -0.000462      0.000021      0.000009
 --------------------------------------------------------


 ---------------------------------------------------------------------------------
              Anisotropic Spin Dipole Couplings in Principal Axis System
 ---------------------------------------------------------------------------------

       Atom             a.u.   MegaHertz   Gauss  10(-4) cm-1        Axes

              Baa    -0.0696    -9.334    -3.330    -3.113  0.7140 -0.6919  0.1071
     1 C(13)  Bbb    -0.0620    -8.322    -2.970    -2.776 -0.1767 -0.0300  0.9838
              Bcc     0.1316    17.656     6.300     5.889  0.6775  0.7213  0.1437
 
              Baa    -0.0311    -4.178    -1.491    -1.394 -0.5273  0.5645  0.6351
     2 C(13)  Bbb    -0.0254    -3.405    -1.215    -1.136  0.4217 -0.4750  0.7723
              Bcc     0.0565     7.583     2.706     2.529  0.7376  0.6751  0.0124
 
              Baa    -0.0175    -2.354    -0.840    -0.785  0.7219  0.6870  0.0829
     3 C(13)  Bbb     0.0063     0.843     0.301     0.281 -0.6100  0.6883 -0.3926
              Bcc     0.0113     1.511     0.539     0.504 -0.3268  0.2328  0.9160
 
              Baa    -0.0965   -12.949    -4.621    -4.319  0.2114 -0.3277  0.9208
     4 C(13)  Bbb    -0.0909   -12.201    -4.354    -4.070 -0.6337  0.6713  0.3844
              Bcc     0.1874    25.150     8.974     8.389  0.7441  0.6648  0.0658
 
              Baa    -0.0330    -4.426    -1.579    -1.476  0.7081  0.6989  0.1010
     5 C(13)  Bbb     0.0144     1.937     0.691     0.646 -0.3599  0.2341  0.9031
              Bcc     0.0186     2.489     0.888     0.830 -0.6075  0.6759 -0.4173
 
              Baa    -0.0450    -6.039    -2.155    -2.014 -0.6397  0.7636  0.0877
     6 C(13)  Bbb    -0.0365    -4.898    -1.748    -1.634  0.0941 -0.0355  0.9949
              Bcc     0.0815    10.937     3.903     3.648  0.7628  0.6448 -0.0491
 
              Baa    -0.0793   -10.644    -3.798    -3.551  0.9447  0.3280 -0.0048
     7 C(13)  Bbb     0.0136     1.827     0.652     0.609  0.2314 -0.6559  0.7185
              Bcc     0.0657     8.818     3.146     2.941 -0.2325  0.6798  0.6955
 
              Baa    -0.3365   -45.150   -16.110   -15.060  0.8955  0.3651  0.2546
     8 C(13)  Bbb    -0.3207   -43.037   -15.357   -14.356 -0.2653  0.8971 -0.3533
              Bcc     0.6572    88.187    31.467    29.416 -0.3574  0.2488  0.9002
 
              Baa    -0.2405    17.400     6.209     5.804  0.9341  0.3276 -0.1416
     9 O(17)  Bbb    -0.1571    11.367     4.056     3.792 -0.3409  0.7013 -0.6261
              Bcc     0.3976   -28.767   -10.265    -9.596 -0.1058  0.6331  0.7668
 
              Baa    -0.0339    -4.551    -1.624    -1.518 -0.5294  0.1676  0.8317
    10 C(13)  Bbb     0.0069     0.920     0.328     0.307  0.4303  0.8979  0.0929
              Bcc     0.0271     3.630     1.295     1.211  0.7312 -0.4071  0.5474
 
              Baa    -0.0327    -4.391    -1.567    -1.465 -0.3681  0.2997  0.8802
    11 C(13)  Bbb     0.0093     1.244     0.444     0.415  0.7623 -0.4448  0.4702
              Bcc     0.0234     3.147     1.123     1.050  0.5324  0.8440 -0.0647
 
              Baa    -0.0043    -2.270    -0.810    -0.757  0.1132  0.9921  0.0532
    12 H(1)   Bbb    -0.0009    -0.494    -0.176    -0.165  0.9767 -0.1013 -0.1893
              Bcc     0.0052     2.765     0.986     0.922  0.1824 -0.0734  0.9805
 
              Baa    -0.0025    -1.310    -0.467    -0.437  0.5519  0.8299  0.0823
    13 H(1)   Bbb    -0.0007    -0.348    -0.124    -0.116  0.8173 -0.5186 -0.2511
              Bcc     0.0031     1.658     0.592     0.553  0.1657 -0.2059  0.9645
 
              Baa    -0.0128    -6.808    -2.429    -2.271  0.1785 -0.2825  0.9425
    14 H(1)   Bbb    -0.0019    -1.023    -0.365    -0.341  0.7258  0.6845  0.0677
              Bcc     0.0147     7.830     2.794     2.612 -0.6643  0.6720  0.3272
 
              Baa    -0.0024    -1.267    -0.452    -0.423  0.6405  0.7579  0.1236
    15 H(1)   Bbb    -0.0003    -0.145    -0.052    -0.049  0.6802 -0.4852 -0.5494
              Bcc     0.0026     1.413     0.504     0.471  0.3565 -0.4360  0.8263
 
              Baa    -0.0058    -3.109    -1.109    -1.037 -0.2323  0.7881  0.5700
    16 H(1)   Bbb    -0.0017    -0.909    -0.325    -0.303  0.9296  0.3524 -0.1083
              Bcc     0.0075     4.019     1.434     1.340  0.2862 -0.5047  0.8145
 
              Baa    -0.0077    -4.131    -1.474    -1.378 -0.3641  0.9251  0.1079
    17 H(1)   Bbb    -0.0017    -0.924    -0.330    -0.308  0.8276  0.2682  0.4931
              Bcc     0.0095     5.055     1.804     1.686 -0.4272 -0.2688  0.8633
 
              Baa    -0.1537    11.124     3.969     3.711  0.7107 -0.5547  0.4327
    18 O(17)  Bbb    -0.1477    10.686     3.813     3.565  0.6163  0.7875 -0.0027
              Bcc     0.3014   -21.810    -7.783    -7.275 -0.3392  0.2686  0.9015
 
              Baa    -0.1401    10.138     3.618     3.382  0.1615  0.9794  0.1216
    19 O(17)  Bbb    -0.1315     9.514     3.395     3.174  0.9058 -0.1960  0.3756
              Bcc     0.2716   -19.652    -7.012    -6.555 -0.3917 -0.0495  0.9188
 
              Baa    -0.1571   -14.812    -5.285    -4.941  0.3655  0.8743 -0.3193
    20 Yb(171 Bbb     0.0481     4.540     1.620     1.515  0.7880 -0.4733 -0.3938
              Bcc     0.1089    10.271     3.665     3.426  0.4954  0.1077  0.8619
 
              Baa    -0.0288     2.084     0.744     0.695  0.7784  0.4092  0.4760
    21 O(17)  Bbb    -0.0182     1.318     0.470     0.440 -0.4632  0.8863 -0.0044
              Bcc     0.0470    -3.402    -1.214    -1.135 -0.4237 -0.2171  0.8794
 
              Baa    -0.0238     1.719     0.614     0.574  0.9477  0.3044 -0.0959
    22 O(17)  Bbb    -0.0102     0.736     0.262     0.245 -0.3170  0.8636 -0.3919
              Bcc     0.0339    -2.455    -0.876    -0.819 -0.0364  0.4018  0.9150
 
              Baa    -0.0030    -0.396    -0.141    -0.132  0.9262  0.3341  0.1744
    23 C(13)  Bbb    -0.0002    -0.021    -0.008    -0.007 -0.3654  0.6825  0.6330
              Bcc     0.0031     0.417     0.149     0.139  0.0925 -0.6501  0.7542
 
              Baa    -0.0024    -0.326    -0.116    -0.109  0.9388  0.2756  0.2067
    24 C(13)  Bbb     0.0007     0.100     0.036     0.033 -0.1790 -0.1224  0.9762
              Bcc     0.0017     0.225     0.080     0.075 -0.2943  0.9534  0.0656
 
              Baa    -0.0013    -0.680    -0.243    -0.227 -0.5517  0.0512  0.8325
    25 H(1)   Bbb    -0.0010    -0.524    -0.187    -0.175  0.8139  0.2511  0.5239
              Bcc     0.0023     1.204     0.429     0.401 -0.1822  0.9666 -0.1802
 
              Baa    -0.0017    -0.903    -0.322    -0.301  0.8496  0.0007 -0.5274
    26 H(1)   Bbb    -0.0009    -0.496    -0.177    -0.165  0.4192  0.6059  0.6761
              Bcc     0.0026     1.398     0.499     0.466 -0.3200  0.7956 -0.5145
 
              Baa    -0.0017    -0.917    -0.327    -0.306 -0.0795  0.0039  0.9968
    27 H(1)   Bbb    -0.0011    -0.573    -0.205    -0.191  0.8069  0.5875  0.0620
[...]
    16   Atom       -0.003977     -0.003763      0.007740
    17   Atom       -0.002343      0.003227     -0.000884
    18   Atom       -0.026212     -0.022111      0.048323
    19   Atom       -0.020874     -0.020164      0.041038
    20   Atom       -0.036836      0.000653      0.036183
    21   Atom       -0.000375      0.002753     -0.002378
    22   Atom        0.011126     -0.002493     -0.008633
    23   Atom       -0.000151      0.000438     -0.000288
    24   Atom       -0.000254      0.000464     -0.000210
    25   Atom       -0.000110      0.000700     -0.000591
    26   Atom        0.000136      0.000428     -0.000564
    27   Atom        0.000297      0.000317     -0.000614
    28   Atom       -0.000767      0.000279      0.000488
    29   Atom       -0.000111     -0.000140      0.000251
    30   Atom        0.000284      0.000578     -0.000861
    31   Atom        0.000017      0.000921     -0.000939
    32   Atom       -0.000381     -0.002351      0.002733
    33   Atom        0.001357     -0.000835     -0.000522
    34   Atom        0.000693     -0.000366     -0.000327
    35   Atom        0.000360      0.000269     -0.000629
    36   Atom        0.000733     -0.001136      0.000403
    37   Atom        0.001377     -0.000728     -0.000649
    38   Atom        0.000256     -0.000367      0.000111
    39   Atom        0.000351      0.000301     -0.000652
    40   Atom        0.000182      0.000280     -0.000463
    41   Atom        0.011317     -0.006197     -0.005119
    42   Atom       -0.000605     -0.001166      0.001770
    43   Atom        0.000029     -0.000903      0.000874
    44   Atom        0.000190      0.000103     -0.000293
    45   Atom        0.000466     -0.000191     -0.000275
    46   Atom       -0.000338     -0.001149      0.001487
    47   Atom        0.000129     -0.000702      0.000573
    48   Atom       -0.000108     -0.000488      0.000595
    49   Atom        0.000215     -0.000013     -0.000201
    50   Atom        0.000106      0.000154     -0.000260
    51   Atom        0.000158      0.000064     -0.000222
    52   Atom        0.000544     -0.000180     -0.000364
    53   Atom        0.000303     -0.000137     -0.000166
    54   Atom        0.000365     -0.000142     -0.000223
 --------------------------------------------------------
                        XY            XZ            YZ
 --------------------------------------------------------
     1   Atom        0.331550      0.008191      0.008221
     2   Atom        0.037001      0.001910     -0.008476
     3   Atom        0.025990     -0.003243     -0.000953
     4   Atom        0.337366     -0.006339     -0.003628
     5   Atom       -0.005771      0.003728     -0.005545
     6   Atom        0.070595     -0.001598     -0.001931
     7   Atom        0.002572     -0.013948      0.001412
     8   Atom       -0.020560     -0.084990      0.030427
     9   Atom       -0.049447     -0.050667      0.081715
    10   Atom       -0.003058      0.006110     -0.002539
    11   Atom        0.002803      0.000317     -0.001834
    12   Atom        0.000541      0.002836     -0.001483
    13   Atom       -0.001014      0.005330     -0.004825
    14   Atom       -0.016019     -0.013953      0.013726
    15   Atom       -0.000767      0.002638     -0.002593
    16   Atom       -0.001248      0.006811     -0.007909
    17   Atom       -0.005395     -0.000097     -0.002939
    18   Atom       -0.005378     -0.018403      0.029045
    19   Atom        0.005113     -0.014443     -0.024228
    20   Atom       -0.059750      0.091784      0.070553
    21   Atom       -0.000791      0.000402     -0.004196
    22   Atom        0.010263     -0.002483     -0.006117
    23   Atom       -0.000959      0.000196     -0.000364
    24   Atom        0.001307     -0.001271     -0.001315
    25   Atom       -0.000670     -0.000001      0.000008
    26   Atom       -0.000862      0.000276     -0.000348
    27   Atom       -0.000802     -0.000081      0.000102
    28   Atom        0.000525     -0.001053     -0.001697
    29   Atom        0.000520     -0.000871     -0.000936
    30   Atom        0.001190     -0.000991     -0.000958
    31   Atom        0.001020      0.000429      0.001487
    32   Atom       -0.000471      0.002754     -0.000843
    33   Atom        0.000159     -0.000802     -0.000036
    34   Atom       -0.000078      0.000030      0.000023
    35   Atom        0.000643      0.000018      0.000026
    36   Atom       -0.000654      0.001643     -0.000607
    37   Atom        0.000028      0.000446     -0.000003
    38   Atom        0.000017      0.000157      0.000041
    39   Atom        0.000713     -0.000076     -0.000119
    40   Atom        0.000577     -0.000144     -0.000131
    41   Atom       -0.004796      0.000707      0.001664
    42   Atom       -0.001189      0.001960     -0.001321
    43   Atom       -0.000178      0.001111     -0.000169
    44   Atom        0.000413      0.000137      0.000162
    45   Atom       -0.000227      0.000067     -0.000010
    46   Atom       -0.000238      0.001098     -0.000144
    47   Atom        0.000091      0.000886      0.000222
    48   Atom       -0.000176      0.000604     -0.000250
    49   Atom        0.000340      0.000218      0.000212
    50   Atom        0.000391      0.000132      0.000180
    51   Atom        0.000315      0.000069      0.000071
    52   Atom       -0.000403      0.000190     -0.000074
    53   Atom       -0.000146      0.000091     -0.000025
    54   Atom       -0.000208     -0.000042      0.000021
 --------------------------------------------------------


 ---------------------------------------------------------------------------------
              Anisotropic Spin Dipole Couplings in Principal Axis System
 ---------------------------------------------------------------------------------

       Atom             a.u.   MegaHertz   Gauss  10(-4) cm-1        Axes

              Baa    -0.2235   -29.996   -10.703   -10.006  0.7337 -0.6731 -0.0929
     1 C(13)  Bbb    -0.2186   -29.329   -10.465    -9.783  0.0565 -0.0758  0.9955
              Bcc     0.4421    59.325    21.169    19.789  0.6771  0.7357  0.0176
 
              Baa    -0.0318    -4.268    -1.523    -1.424 -0.5213  0.5908  0.6158
     2 C(13)  Bbb    -0.0165    -2.219    -0.792    -0.740  0.4675 -0.4060  0.7852
              Bcc     0.0483     6.488     2.315     2.164  0.7139  0.6972 -0.0646
 
              Baa    -0.0221    -2.967    -1.059    -0.990 -0.6897  0.7154 -0.1115
     3 C(13)  Bbb    -0.0082    -1.104    -0.394    -0.368 -0.0207  0.1344  0.9907
              Bcc     0.0303     4.071     1.453     1.358  0.7238  0.6856 -0.0779
 
              Baa    -0.2277   -30.555   -10.903   -10.192  0.3275 -0.3192  0.8893
     4 C(13)  Bbb    -0.2231   -29.939   -10.683    -9.987 -0.6208  0.6368  0.4572
              Bcc     0.4508    60.494    21.586    20.179  0.7123  0.7018 -0.0104
 
              Baa    -0.0090    -1.202    -0.429    -0.401  0.3918  0.8772  0.2774
     5 C(13)  Bbb    -0.0014    -0.190    -0.068    -0.063  0.7184 -0.1034 -0.6879
              Bcc     0.0104     1.393     0.497     0.465  0.5748 -0.4688  0.6707
 
              Baa    -0.0526    -7.058    -2.519    -2.354 -0.6767  0.7359  0.0211
     6 C(13)  Bbb    -0.0365    -4.903    -1.750    -1.636  0.0288 -0.0021  0.9996
              Bcc     0.0891    11.961     4.268     3.990  0.7357  0.6771 -0.0198
 
              Baa    -0.0232    -3.107    -1.109    -1.036  0.6691 -0.0674  0.7401
     7 C(13)  Bbb     0.0050     0.672     0.240     0.224  0.7365 -0.0734 -0.6725
              Bcc     0.0181     2.435     0.869     0.812  0.0996  0.9950  0.0005
 
              Baa    -0.0652    -8.743    -3.120    -2.916  0.7282  0.6000  0.3313
     8 C(13)  Bbb    -0.0637    -8.550    -3.051    -2.852 -0.4295  0.7762 -0.4616
              Bcc     0.1289    17.293     6.171     5.768 -0.5341  0.1938  0.8229
 
              Baa    -0.0827     5.981     2.134     1.995  0.9008  0.4263  0.0823
     9 O(17)  Bbb    -0.0549     3.971     1.417     1.324 -0.2647  0.6895 -0.6742
              Bcc     0.1375    -9.952    -3.551    -3.320 -0.3442  0.5855  0.7340
 
              Baa    -0.0071    -0.958    -0.342    -0.320 -0.5270  0.0676  0.8472
    10 C(13)  Bbb    -0.0012    -0.162    -0.058    -0.054  0.4286  0.8819  0.1962
              Bcc     0.0083     1.120     0.400     0.373  0.7339 -0.4665  0.4937
 
              Baa    -0.0052    -0.698    -0.249    -0.233 -0.1453  0.3759  0.9152
    11 C(13)  Bbb    -0.0004    -0.053    -0.019    -0.018 -0.4691  0.7883 -0.3982
              Bcc     0.0056     0.751     0.268     0.250  0.8711  0.4871 -0.0618
 
              Baa    -0.0068    -3.612    -1.289    -1.205 -0.6321  0.7581  0.1605
    12 H(1)   Bbb    -0.0052    -2.778    -0.991    -0.927  0.7585  0.6477 -0.0717
              Bcc     0.0120     6.390     2.280     2.131  0.1583 -0.0765  0.9844
 
              Baa    -0.0065    -3.490    -1.245    -1.164 -0.5418  0.7168  0.4390
    13 H(1)   Bbb    -0.0050    -2.648    -0.945    -0.883  0.7703  0.6324 -0.0819
              Bcc     0.0115     6.138     2.190     2.047  0.3363 -0.2938  0.8948
 
              Baa    -0.0293   -15.636    -5.579    -5.216  0.2378 -0.2245  0.9450
    14 H(1)   Bbb    -0.0048    -2.535    -0.904    -0.845  0.7079  0.7062 -0.0104
              Bcc     0.0341    18.171     6.484     6.061 -0.6650  0.6715  0.3268
 
              Baa    -0.0050    -2.684    -0.958    -0.895  0.5014  0.8626  0.0678
    15 H(1)   Bbb    -0.0045    -2.388    -0.852    -0.796  0.8423 -0.4688 -0.2660
              Bcc     0.0095     5.072     1.810     1.692  0.1976 -0.1904  0.9616
 
              Baa    -0.0091    -4.852    -1.731    -1.618 -0.5417  0.6550  0.5269
    16 H(1)   Bbb    -0.0051    -2.731    -0.975    -0.911  0.7663  0.6424 -0.0108
              Bcc     0.0142     7.583     2.706     2.529  0.3455 -0.3979  0.8499
 
              Baa    -0.0062    -3.292    -1.175    -1.098  0.7762  0.5449  0.3172
    17 H(1)   Bbb    -0.0011    -0.589    -0.210    -0.197 -0.4255  0.0815  0.9013
              Bcc     0.0073     3.881     1.385     1.295 -0.4652  0.8346 -0.2951
 
              Baa    -0.0330     2.389     0.853     0.797 -0.3795  0.8408 -0.3861
    18 O(17)  Bbb    -0.0298     2.160     0.771     0.720  0.9010  0.4306  0.0521
              Bcc     0.0629    -4.549    -1.623    -1.517 -0.2101  0.3281  0.9210
 
              Baa    -0.0286     2.069     0.738     0.690 -0.0176  0.9454  0.3253
    19 O(17)  Bbb    -0.0241     1.741     0.621     0.581  0.9788 -0.0501  0.1985
              Bcc     0.0527    -3.810    -1.360    -1.271 -0.2040 -0.3219  0.9245
 
              Baa    -0.1519   -14.329    -5.113    -4.780  0.6824  0.5095 -0.5241
    20 Yb(171 Bbb     0.0445     4.194     1.496     1.399 -0.6107  0.7914 -0.0257
              Bcc     0.1075    10.136     3.617     3.381  0.4017  0.3376  0.8513
 
              Baa    -0.0047     0.342     0.122     0.114  0.0086  0.4897  0.8718
    21 O(17)  Bbb    -0.0005     0.037     0.013     0.012  0.9877  0.1318 -0.0837
              Bcc     0.0052    -0.380    -0.135    -0.127 -0.1559  0.8619 -0.4826
 
              Baa    -0.0130     0.943     0.337     0.315 -0.1863  0.6225  0.7601
    22 O(17)  Bbb    -0.0046     0.333     0.119     0.111  0.4950 -0.6088  0.6200
              Bcc     0.0176    -1.277    -0.456    -0.426  0.8487  0.4917 -0.1947
 
              Baa    -0.0009    -0.116    -0.041    -0.039  0.7843  0.6093  0.1172
    23 C(13)  Bbb    -0.0004    -0.052    -0.019    -0.017 -0.2480  0.1346  0.9594
              Bcc     0.0013     0.169     0.060     0.056 -0.5687  0.7815 -0.2566
 
              Baa    -0.0015    -0.202    -0.072    -0.067  0.7217 -0.0171  0.6920
    24 C(13)  Bbb    -0.0011    -0.151    -0.054    -0.050 -0.4410  0.7592  0.4787
              Bcc     0.0026     0.353     0.126     0.118  0.5335  0.6507 -0.5404
 
              Baa    -0.0006    -0.315    -0.112    -0.105 -0.0221 -0.0174  0.9996
    25 H(1)   Bbb    -0.0005    -0.260    -0.093    -0.087  0.8707  0.4910  0.0278
              Bcc     0.0011     0.575     0.205     0.192 -0.4913  0.8710  0.0044
 
              Baa    -0.0007    -0.359    -0.128    -0.120 -0.0264  0.2819  0.9591
    26 H(1)   Bbb    -0.0006    -0.315    -0.112    -0.105  0.7795  0.6064 -0.1568
              Bcc     0.0013     0.674     0.241     0.225 -0.6258  0.7435 -0.2358
 
              Baa    -0.0006    -0.334    -0.119    -0.111 -0.0249 -0.1289  0.9913
    27 H(1)   Bbb    -0.0005    -0.263    -0.094    -0.088  0.7134  0.6924  0.1080
              Bcc     0.0011     0.597     0.213     0.199 -0.7003  0.7099  0.0747
 
              Baa    -0.0016    -0.837    -0.299    -0.279  0.5879  0.4501  0.6721
    28 H(1)   Bbb    -0.0009    -0.485    -0.173    -0.162  0.7383 -0.6382 -0.2183
              Bcc     0.0025     1.322     0.472     0.441 -0.3307 -0.6246  0.7075
 
              Baa    -0.0010    -0.514    -0.183    -0.171  0.3845  0.5768  0.7208
    29 H(1)   Bbb    -0.0006    -0.341    -0.122    -0.114  0.7713 -0.6297  0.0925
              Bcc     0.0016     0.855     0.305     0.285 -0.5072 -0.5204  0.6870
 
              Baa    -0.0015    -0.792    -0.283    -0.264  0.3674  0.2089  0.9063
    30 H(1)   Bbb    -0.0008    -0.403    -0.144    -0.135 -0.6966  0.7075  0.1193
              Bcc     0.0022     1.195     0.426     0.399  0.6163  0.6751 -0.4055
 
              Baa    -0.0018     0.128     0.046     0.043  0.0824 -0.5054  0.8590
    31 O(17)  Bbb    -0.0005     0.037     0.013     0.012  0.8954 -0.3409 -0.2865
              Bcc     0.0023    -0.165    -0.059    -0.055  0.4376  0.7927  0.4244
 
              Baa    -0.0025     0.180     0.064     0.060  0.0399  0.9895  0.1387
    32 O(17)  Bbb    -0.0020     0.144     0.051     0.048  0.8659  0.0351 -0.4990
              Bcc     0.0045    -0.324    -0.116    -0.108  0.4986 -0.1400  0.8554
 
              Baa    -0.0009     0.062     0.022     0.021 -0.2172  0.8781 -0.4263
    33 O(17)  Bbb    -0.0008     0.058     0.021     0.019  0.2751  0.4741  0.8364
              Bcc     0.0017    -0.120    -0.043    -0.040  0.9365  0.0644 -0.3446
 
              Baa    -0.0004    -0.016    -0.006    -0.005  0.0772  0.9081 -0.4115
    34 S(33)  Bbb    -0.0003    -0.013    -0.005    -0.004  0.0042  0.4124  0.9110
              Bcc     0.0007     0.029     0.010     0.010  0.9970 -0.0720  0.0280
 
              Baa    -0.0006    -0.026    -0.009    -0.009  0.0017 -0.0304  0.9995
    35 S(33)  Bbb    -0.0003    -0.014    -0.005    -0.005 -0.6818  0.7311  0.0233
              Bcc     0.0010     0.039     0.014     0.013  0.7315  0.6816  0.0195
 
              Baa    -0.0014    -0.056    -0.020    -0.019  0.1524  0.9695  0.1919
    36 S(33)  Bbb    -0.0011    -0.044    -0.016    -0.015 -0.6781 -0.0387  0.7340
              Bcc     0.0024     0.100     0.036     0.033  0.7190 -0.2420  0.6515
 
              Baa    -0.0007     0.054     0.019     0.018 -0.1919  0.4190  0.8875
    37 O(17)  Bbb    -0.0007     0.052     0.019     0.017  0.0753  0.9079 -0.4124
              Bcc     0.0015    -0.106    -0.038    -0.036  0.9785  0.0123  0.2057
 
              Baa    -0.0004     0.027     0.010     0.009 -0.0061  0.9965 -0.0830
    38 O(17)  Bbb     0.0000    -0.001    -0.000    -0.000 -0.5435  0.0664  0.8368
              Bcc     0.0004    -0.026    -0.009    -0.009  0.8394  0.0502  0.5412
 
              Baa    -0.0007     0.048     0.017     0.016 -0.0238  0.1391  0.9900
    39 O(17)  Bbb    -0.0004     0.028     0.010     0.009 -0.6981  0.7066 -0.1160
              Bcc     0.0011    -0.076    -0.027    -0.025  0.7156  0.6939 -0.0802
 
              Baa    -0.0005     0.036     0.013     0.012  0.1848  0.0288  0.9823
    40 O(17)  Bbb    -0.0003     0.025     0.009     0.008  0.7183 -0.6862 -0.1150
              Bcc     0.0008    -0.061    -0.022    -0.020  0.6707  0.7269 -0.1475
 
              Baa    -0.0084     0.608     0.217     0.203  0.2237  0.8489 -0.4788
    41 O(17)  Bbb    -0.0041     0.300     0.107     0.100  0.1048  0.4675  0.8778
              Bcc     0.0125    -0.908    -0.324    -0.303  0.9690 -0.2466  0.0156
 
              Baa    -0.0021     0.154     0.055     0.051  0.6952  0.7105 -0.1088
    42 O(17)  Bbb    -0.0014     0.101     0.036     0.034 -0.5330  0.6111  0.5852
              Bcc     0.0035    -0.255    -0.091    -0.085  0.4823 -0.3488  0.8035
 
              Baa    -0.0009    -0.126    -0.045    -0.042  0.2517  0.9657 -0.0642
    43 C(13)  Bbb    -0.0007    -0.097    -0.035    -0.032  0.7845 -0.2424 -0.5708
              Bcc     0.0017     0.223     0.080     0.074  0.5668 -0.0934  0.8186
 
              Baa    -0.0004    -0.047    -0.017    -0.016  0.0594 -0.3827  0.9219
    44 C(13)  Bbb    -0.0003    -0.035    -0.012    -0.012  0.6926 -0.6493 -0.3142
              Bcc     0.0006     0.082     0.029     0.027  0.7189  0.6572  0.2265
 
              Baa    -0.0003    -0.038    -0.014    -0.013 -0.1887 -0.3541  0.9160
    45 C(13)  Bbb    -0.0003    -0.035    -0.012    -0.012  0.2426  0.8870  0.3929
              Bcc     0.0005     0.073     0.026     0.024  0.9516 -0.2964  0.0815
 
              Baa    -0.0012    -0.617    -0.220    -0.206  0.3716  0.9228 -0.1014
    46 F(19)  Bbb    -0.0008    -0.397    -0.142    -0.132  0.8243 -0.3782 -0.4212
              Bcc     0.0020     1.014     0.362     0.338  0.4271 -0.0730  0.9013
 
              Baa    -0.0008    -0.377    -0.134    -0.126  0.1900  0.9396 -0.2849
    47 F(19)  Bbb    -0.0005    -0.272    -0.097    -0.091  0.7710 -0.3224 -0.5492
              Bcc     0.0013     0.649     0.231     0.216  0.6079  0.1153  0.7856
 
              Baa    -0.0006    -0.280    -0.100    -0.093  0.3192  0.9469  0.0380
    48 F(19)  Bbb    -0.0004    -0.225    -0.080    -0.075  0.8100 -0.2518 -0.5296
              Bcc     0.0010     0.505     0.180     0.168  0.4919 -0.1999  0.8474
 
              Baa    -0.0003    -0.171    -0.061    -0.057  0.0134 -0.5551  0.8317
    49 F(19)  Bbb    -0.0002    -0.119    -0.042    -0.040  0.6665 -0.6150 -0.4213
              Bcc     0.0006     0.289     0.103     0.096  0.7454  0.5600  0.3618
 
              Baa    -0.0003    -0.165    -0.059    -0.055  0.1051 -0.4210  0.9009
    50 F(19)  Bbb    -0.0003    -0.126    -0.045    -0.042  0.7470 -0.5646 -0.3510
              Bcc     0.0006     0.291     0.104     0.097  0.6565  0.7099  0.2551
 
              Baa    -0.0002    -0.120    -0.043    -0.040  0.0704 -0.2964  0.9525
    51 F(19)  Bbb    -0.0002    -0.103    -0.037    -0.034 -0.6604  0.7018  0.2672
              Bcc     0.0004     0.223     0.080     0.074  0.7476  0.6478  0.1463
 
              Baa    -0.0004    -0.203    -0.072    -0.068 -0.2446 -0.1209  0.9621
    52 F(19)  Bbb    -0.0004    -0.179    -0.064    -0.060  0.3623  0.9089  0.2063
              Bcc     0.0008     0.382     0.136     0.127  0.8994 -0.3991  0.1786
 
              Baa    -0.0002    -0.093    -0.033    -0.031 -0.2945 -0.4646  0.8352
    53 F(19)  Bbb    -0.0002    -0.090    -0.032    -0.030  0.1553  0.8390  0.5215
              Bcc     0.0004     0.183     0.065     0.061  0.9430 -0.2833  0.1749
 
              Baa    -0.0002    -0.115    -0.041    -0.038 -0.0738 -0.3952  0.9156
    54 F(19)  Bbb    -0.0002    -0.107    -0.038    -0.036  0.3364  0.8545  0.3959
              Bcc     0.0004     0.222     0.079     0.074  0.9388 -0.3372 -0.0699
 

 ---------------------------------------------------------------------------------


 This type of calculation cannot be archived.


 ON A TOMBSTONE, "HERE LIES LESTER MOORE,
 FOUR SLUGS FROM A 44, NO LES, NO MORE".
 Job cpu time:      15 days  2 hours  0 minutes 57.5 seconds.
 Elapsed time:       0 days 15 hours 12 minutes 15.9 seconds.
 File lengths (MBytes):  RWF=   8048 Int=      0 D2E=      0 Chk=    108 Scr=      8
 Normal termination of Gaussian 16 at Tue Mar  4 10:10:49 2025.
