 Entering Gaussian System, Link 0=/sysapps/ubuntu-applications/gaussian-new/avx/g16//g16
 Input=i3-maj.in
 Output=i3-maj.log
 Initial command:
 /sysapps/ubuntu-applications/gaussian-new/avx/g16/l1.exe "/scratch/selhajj1/7627292/Gau-2754758.inp" -scrdir="/scratch/selhajj1/7627292/"
 Entering Link 1 = /sysapps/ubuntu-applications/gaussian-new/avx/g16/l1.exe PID=   2754760.
  
 Copyright (c) 1988,1990,1992,1993,1995,1998,2003,2009,2016,
            Gaussian, Inc.  All Rights Reserved.
  
 This is part of the Gaussian(R) 16 program.  It is based on
 the Gaussian(R) 09 system (copyright 2009, Gaussian, Inc.),
 the Gaussian(R) 03 system (copyright 2003, Gaussian, Inc.),
 the Gaussian(R) 98 system (copyright 1998, Gaussian, Inc.),
 the Gaussian(R) 94 system (copyright 1995, Gaussian, Inc.),
 the Gaussian 92(TM) system (copyright 1992, Gaussian, Inc.),
 the Gaussian 90(TM) system (copyright 1990, Gaussian, Inc.),
 the Gaussian 88(TM) system (copyright 1988, Gaussian, Inc.),
 the Gaussian 86(TM) system (copyright 1986, Carnegie Mellon
 University), and the Gaussian 82(TM) system (copyright 1983,
 Carnegie Mellon University). Gaussian is a federally registered
 trademark of Gaussian, Inc.
  
 This software contains proprietary and confidential information,
 including trade secrets, belonging to Gaussian, Inc.
  
 This software is provided under written license and may be
 used, copied, transmitted, or stored only in accord with that
 written license.
  
 The following legend is applicable only to US Government
 contracts under FAR:
  
                    RESTRICTED RIGHTS LEGEND
  
 Use, reproduction and disclosure by the US Government is
 subject to restrictions as set forth in subparagraphs (a)
 and (c) of the Commercial Computer Software - Restricted
 Rights clause in FAR 52.227-19.
  
 Gaussian, Inc.
 340 Quinnipiac St., Bldg. 40, Wallingford CT 06492
  
  
 ---------------------------------------------------------------
 Warning -- This program may not be used in any manner that
 competes with the business of Gaussian, Inc. or will provide
 assistance to any competitor of Gaussian, Inc.  The licensee
 of this program is prohibited from giving any competitor of
 Gaussian, Inc. access to this program.  By using this program,
 the user acknowledges that Gaussian, Inc. is engaged in the
 business of creating and licensing software in the field of
 computational chemistry and represents and warrants to the
 licensee that it is not a competitor of Gaussian, Inc. and that
 it will not use this program in any manner prohibited above.
 ---------------------------------------------------------------
  

 Cite this work as:
 Gaussian 16, Revision A.03,
 M. J. Frisch, G. W. Trucks, H. B. Schlegel, G. E. Scuseria, 
 M. A. Robb, J. R. Cheeseman, G. Scalmani, V. Barone, 
 G. A. Petersson, H. Nakatsuji, X. Li, M. Caricato, A. V. Marenich, 
 J. Bloino, B. G. Janesko, R. Gomperts, B. Mennucci, H. P. Hratchian, 
 J. V. Ortiz, A. F. Izmaylov, J. L. Sonnenberg, D. Williams-Young, 
 F. Ding, F. Lipparini, F. Egidi, J. Goings, B. Peng, A. Petrone, 
 T. Henderson, D. Ranasinghe, V. G. Zakrzewski, J. Gao, N. Rega, 
 G. Zheng, W. Liang, M. Hada, M. Ehara, K. Toyota, R. Fukuda, 
 J. Hasegawa, M. Ishida, T. Nakajima, Y. Honda, O. Kitao, H. Nakai, 
 T. Vreven, K. Throssell, J. A. Montgomery, Jr., J. E. Peralta, 
 F. Ogliaro, M. J. Bearpark, J. J. Heyd, E. N. Brothers, K. N. Kudin, 
 V. N. Staroverov, T. A. Keith, R. Kobayashi, J. Normand, 
 K. Raghavachari, A. P. Rendell, J. C. Burant, S. S. Iyengar, 
 J. Tomasi, M. Cossi, J. M. Millam, M. Klene, C. Adamo, R. Cammi, 
 J. W. Ochterski, R. L. Martin, K. Morokuma, O. Farkas, 
 J. B. Foresman, and D. J. Fox, Gaussian, Inc., Wallingford CT, 2016.
 
 ******************************************
 Gaussian 16:  ES64L-G16RevA.03 25-Dec-2016
                 3-Mar-2025 
 ******************************************
 %chk=i3-maj.chk
 %mem=616Gb
 %nprocshared=24
 Will use up to   24 processors via shared memory.
 ------------------------------------------------------------------
 #P MN15/gen scf=(maxcyc=500) opt scrf=(smd,solvent=DiChloroEthane)
 ------------------------------------------------------------------
 1/18=20,19=15,26=3,38=1/1,3;
 2/9=110,12=2,17=6,18=5,40=1/2;
 3/5=7,11=2,25=1,30=1,70=32201,71=1,72=10,74=-73/1,2,3;
 4//1;
 5/5=2,7=500,38=5,53=10/2;
 6/7=2,8=2,9=2,10=2,28=1/1;
 7//1,2,3,16;
 1/18=20,19=15,26=3/3(2);
 2/9=110/2;
 99//99;
 2/9=110/2;
 3/5=7,6=1,11=2,25=1,30=1,70=32205,71=1,72=10,74=-73,82=7/1,2,3;
 4/5=5,16=3,69=1/1;
 5/5=2,7=500,38=5,53=10/2;
 7//1,2,3,16;
 1/18=20,19=15,26=3/3(-5);
 2/9=110/2;
 6/7=2,8=2,9=2,10=2,19=2,28=1/1;
 99/9=1/99;
 Leave Link    1 at Mon Mar  3 06:18:42 2025, MaxMem= 82678120448 cpu:               2.4 elap:               0.4
 (Enter /sysapps/ubuntu-applications/gaussian-new/avx/g16/l101.exe)
 ---
 Opt
 ---
 Symbolic Z-matrix:
 Charge =  0 Multiplicity = 1
 C                     5.52477  -0.76852   0.09492 
 C                     5.80226  -1.60247   1.18818 
 C                     6.95371  -2.3931    1.19984 
 C                     7.84029  -2.36248   0.12166 
 C                     7.57184  -1.53584  -0.97217 
 C                     6.42214  -0.746    -0.98324 
 C                     1.76532   0.32107   0.64495 
 C                     1.14616   0.50651  -0.7299 
 C                     0.74004  -0.25259   1.60396 
 H                     5.12358  -1.64292   2.04351 
 H                     7.15602  -3.03795   2.05785 
 H                     8.73854  -2.98393   0.13241 
 H                     8.25783  -1.50761  -1.82163 
 H                     6.20946  -0.09982  -1.83984 
 O                    -0.44708   0.10603   1.6012 
 O                    -0.03123   0.30756  -1.03572 
 O                    -3.49136   0.34578   1.35889 
 O                    -2.93907   0.73058  -1.54162 
 O                    -0.28901  -2.14222   0.09074 
 S                    -0.95435  -2.75643  -1.0906 
 S                    -3.84596  -1.02908   1.84235 
 S                    -2.72568   2.15338  -1.10069 
 O                    -2.04961  -1.79947  -1.4668 
 O                    -1.28633  -4.15535  -1.04186 
 O                    -2.75603  -1.88349   1.27386 
 O                    -4.2065   -1.19783   3.22193 
 O                    -1.85187   2.03328   0.09897 
 O                    -2.35748   3.11032  -2.11273 
 C                    -4.39794   2.68799  -0.45552 
 C                    -5.30861  -1.45643   0.80836 
 C                     0.2725   -2.56683  -2.49298 
 F                    -4.2658    3.14243   0.77289 
 F                    -5.2339    1.6691   -0.47051 
 F                    -4.85874   3.64548  -1.23594 
 F                    -4.96618  -1.3045   -0.45984 
 F                    -6.30469  -0.6469    1.10329 
 F                    -5.65906  -2.70584   1.031 
 F                     1.41284  -2.07866  -2.02395 
 F                    -0.20746  -1.74026  -3.40059 
 F                     0.49349  -3.74481  -3.03359 
 C                     4.30472   0.12824   0.04254 
 H                     4.1394    0.41441  -1.00563 
 C                     4.52566   1.49894   0.76391 
 C                     5.68796   2.19772   0.17694 
 C                     4.80861   1.28303   2.20537 
 C                     0.99654   2.75636   1.02545 
 C                     2.30401   3.85579  -0.69072 
 C                     1.07404   3.70136   0.07305 
 H                     0.09885   2.62442   1.63043 
 H                     2.37681   4.57367  -1.51113 
 H                     0.23486   4.37168  -0.12147 
 N                     6.64702   2.67053  -0.26434 
 N                     4.99356   1.07722   3.3291 
 N                     3.32962   2.32171   0.63056 
 N                     3.36573   3.1839   -0.41181 
 C                     2.11991   1.78116   1.21803 
 H                     2.31214   1.60539   2.29276 
 Sc                   -1.81481  -0.25776   0.03443 
 C                     3.05263  -0.53331   0.62519 
 H                     2.86078  -1.47977   0.09879 
 H                     3.25537  -0.79127   1.67464 
 C                     1.23108  -1.15103   2.56084 
 H                     1.69454  -1.97963   2.06736 
 H                     1.95076  -0.65591   3.17875 
 H                     0.42285  -1.50351   3.16699 
 C                     2.06114   0.99475  -1.67242 
 H                     2.71881   1.69516  -1.20146 
 H                     2.63166   0.18159  -2.07013 
 H                     1.53156   1.48031  -2.46531 
 
 ITRead=  0  0  0  0  0  0  0  0  0  0  0  0  0  0  0  0  0  0  0  0
 ITRead=  0  0  0  0  0  0  0  0  0  0  0  0  0  0  0  0  0  0  0  0
 ITRead=  0  0  0  0  0  0  0  0  0  0  0  0  0  0  0  0  0  0  0  0
 ITRead=  0  0  0  0  0  0  0  0  0
 MicOpt= -1 -1 -1 -1 -1 -1 -1 -1 -1 -1 -1 -1 -1 -1 -1 -1 -1 -1 -1 -1
 MicOpt= -1 -1 -1 -1 -1 -1 -1 -1 -1 -1 -1 -1 -1 -1 -1 -1 -1 -1 -1 -1
 MicOpt= -1 -1 -1 -1 -1 -1 -1 -1 -1 -1 -1 -1 -1 -1 -1 -1 -1 -1 -1 -1
 MicOpt= -1 -1 -1 -1 -1 -1 -1 -1 -1
 NAtoms=     69 NQM=       69 NQMF=       0 NMMI=      0 NMMIF=      0
                NMic=       0 NMicF=      0.
                    Isotopes and Nuclear Properties:
 (Nuclear quadrupole moments (NQMom) in fm**2, nuclear magnetic moments (NMagM)
  in nuclear magnetons)

  Atom         1           2           3           4           5           6           7           8           9          10
 IAtWgt=          12          12          12          12          12          12          12          12          12           1
 AtmWgt=  12.0000000  12.0000000  12.0000000  12.0000000  12.0000000  12.0000000  12.0000000  12.0000000  12.0000000   1.0078250
 NucSpn=           0           0           0           0           0           0           0           0           0           1
 AtZEff=  -0.0000000  -0.0000000  -0.0000000  -0.0000000  -0.0000000  -0.0000000  -0.0000000  -0.0000000  -0.0000000  -0.0000000
 NQMom=    0.0000000   0.0000000   0.0000000   0.0000000   0.0000000   0.0000000   0.0000000   0.0000000   0.0000000   0.0000000
 NMagM=    0.0000000   0.0000000   0.0000000   0.0000000   0.0000000   0.0000000   0.0000000   0.0000000   0.0000000   2.7928460
 AtZNuc=   6.0000000   6.0000000   6.0000000   6.0000000   6.0000000   6.0000000   6.0000000   6.0000000   6.0000000   1.0000000

  Atom        11          12          13          14          15          16          17          18          19          20
 IAtWgt=           1           1           1           1          16          16          16          16          16          32
 AtmWgt=   1.0078250   1.0078250   1.0078250   1.0078250  15.9949146  15.9949146  15.9949146  15.9949146  15.9949146  31.9720718
 NucSpn=           1           1           1           1           0           0           0           0           0           0
 AtZEff=  -0.0000000  -0.0000000  -0.0000000  -0.0000000  -0.0000000  -0.0000000  -0.0000000  -0.0000000  -0.0000000  -0.0000000
 NQMom=    0.0000000   0.0000000   0.0000000   0.0000000   0.0000000   0.0000000   0.0000000   0.0000000   0.0000000   0.0000000
 NMagM=    2.7928460   2.7928460   2.7928460   2.7928460   0.0000000   0.0000000   0.0000000   0.0000000   0.0000000   0.0000000
 AtZNuc=   1.0000000   1.0000000   1.0000000   1.0000000   8.0000000   8.0000000   8.0000000   8.0000000   8.0000000  16.0000000

  Atom        21          22          23          24          25          26          27          28          29          30
 IAtWgt=          32          32          16          16          16          16          16          16          12          12
 AtmWgt=  31.9720718  31.9720718  15.9949146  15.9949146  15.9949146  15.9949146  15.9949146  15.9949146  12.0000000  12.0000000
 NucSpn=           0           0           0           0           0           0           0           0           0           0
 AtZEff=  -0.0000000  -0.0000000  -0.0000000  -0.0000000  -0.0000000  -0.0000000  -0.0000000  -0.0000000  -0.0000000  -0.0000000
 NQMom=    0.0000000   0.0000000   0.0000000   0.0000000   0.0000000   0.0000000   0.0000000   0.0000000   0.0000000   0.0000000
 NMagM=    0.0000000   0.0000000   0.0000000   0.0000000   0.0000000   0.0000000   0.0000000   0.0000000   0.0000000   0.0000000
 AtZNuc=  16.0000000  16.0000000   8.0000000   8.0000000   8.0000000   8.0000000   8.0000000   8.0000000   6.0000000   6.0000000

  Atom        31          32          33          34          35          36          37          38          39          40
 IAtWgt=          12          19          19          19          19          19          19          19          19          19
 AtmWgt=  12.0000000  18.9984032  18.9984032  18.9984032  18.9984032  18.9984032  18.9984032  18.9984032  18.9984032  18.9984032
 NucSpn=           0           1           1           1           1           1           1           1           1           1
 AtZEff=  -0.0000000  -0.0000000  -0.0000000  -0.0000000  -0.0000000  -0.0000000  -0.0000000  -0.0000000  -0.0000000  -0.0000000
 NQMom=    0.0000000   0.0000000   0.0000000   0.0000000   0.0000000   0.0000000   0.0000000   0.0000000   0.0000000   0.0000000
 NMagM=    0.0000000   2.6288670   2.6288670   2.6288670   2.6288670   2.6288670   2.6288670   2.6288670   2.6288670   2.6288670
 AtZNuc=   6.0000000   9.0000000   9.0000000   9.0000000   9.0000000   9.0000000   9.0000000   9.0000000   9.0000000   9.0000000

  Atom        41          42          43          44          45          46          47          48          49          50
 IAtWgt=          12           1          12          12          12          12          12          12           1           1
 AtmWgt=  12.0000000   1.0078250  12.0000000  12.0000000  12.0000000  12.0000000  12.0000000  12.0000000   1.0078250   1.0078250
 NucSpn=           0           1           0           0           0           0           0           0           1           1
 AtZEff=  -0.0000000  -0.0000000  -0.0000000  -0.0000000  -0.0000000  -0.0000000  -0.0000000  -0.0000000  -0.0000000  -0.0000000
 NQMom=    0.0000000   0.0000000   0.0000000   0.0000000   0.0000000   0.0000000   0.0000000   0.0000000   0.0000000   0.0000000
 NMagM=    0.0000000   2.7928460   0.0000000   0.0000000   0.0000000   0.0000000   0.0000000   0.0000000   2.7928460   2.7928460
 AtZNuc=   6.0000000   1.0000000   6.0000000   6.0000000   6.0000000   6.0000000   6.0000000   6.0000000   1.0000000   1.0000000

  Atom        51          52          53          54          55          56          57          58          59          60
 IAtWgt=           1          14          14          14          14          12           1          45          12           1
 AtmWgt=   1.0078250  14.0030740  14.0030740  14.0030740  14.0030740  12.0000000   1.0078250  44.9559136  12.0000000   1.0078250
 NucSpn=           1           2           2           2           2           0           1           7           0           1
 AtZEff=  -0.0000000  -0.0000000  -0.0000000  -0.0000000  -0.0000000  -0.0000000  -0.0000000  -0.0000000  -0.0000000  -0.0000000
 NQMom=    0.0000000   2.0440000   2.0440000   2.0440000   2.0440000   0.0000000   0.0000000 -22.0000000   0.0000000   0.0000000
 NMagM=    2.7928460   0.4037610   0.4037610   0.4037610   0.4037610   0.0000000   2.7928460   4.7564830   0.0000000   2.7928460
 AtZNuc=   1.0000000   7.0000000   7.0000000   7.0000000   7.0000000   6.0000000   1.0000000  21.0000000   6.0000000   1.0000000

  Atom        61          62          63          64          65          66          67          68          69
 IAtWgt=           1          12           1           1           1          12           1           1           1
 AtmWgt=   1.0078250  12.0000000   1.0078250   1.0078250   1.0078250  12.0000000   1.0078250   1.0078250   1.0078250
 NucSpn=           1           0           1           1           1           0           1           1           1
 AtZEff=  -0.0000000  -0.0000000  -0.0000000  -0.0000000  -0.0000000  -0.0000000  -0.0000000  -0.0000000  -0.0000000
 NQMom=    0.0000000   0.0000000   0.0000000   0.0000000   0.0000000   0.0000000   0.0000000   0.0000000   0.0000000
 NMagM=    2.7928460   0.0000000   2.7928460   2.7928460   2.7928460   0.0000000   2.7928460   2.7928460   2.7928460
 AtZNuc=   1.0000000   6.0000000   1.0000000   1.0000000   1.0000000   6.0000000   1.0000000   1.0000000   1.0000000
 Leave Link  101 at Mon Mar  3 06:18:44 2025, MaxMem= 82678120448 cpu:              16.4 elap:               1.7
 (Enter /sysapps/ubuntu-applications/gaussian-new/avx/g16/l103.exe)

 GradGradGradGradGradGradGradGradGradGradGradGradGradGradGradGradGradGrad
 Berny optimization.
 Initialization pass.
                           ----------------------------
                           !    Initial Parameters    !
                           ! (Angstroms and Degrees)  !
 --------------------------                            --------------------------
 ! Name  Definition              Value          Derivative Info.                !
 --------------------------------------------------------------------------------
 ! R1    R(1,2)                  1.4027         estimate D2E/DX2                !
 ! R2    R(1,6)                  1.4029         estimate D2E/DX2                !
 ! R3    R(1,41)                 1.5151         estimate D2E/DX2                !
 ! R4    R(2,3)                  1.3968         estimate D2E/DX2                !
 ! R5    R(2,10)                 1.0926         estimate D2E/DX2                !
 ! R6    R(3,4)                  1.3962         estimate D2E/DX2                !
 ! R7    R(3,11)                 1.0922         estimate D2E/DX2                !
 ! R8    R(4,5)                  1.3971         estimate D2E/DX2                !
 ! R9    R(4,12)                 1.0923         estimate D2E/DX2                !
 ! R10   R(5,6)                  1.3949         estimate D2E/DX2                !
 ! R11   R(5,13)                 1.0922         estimate D2E/DX2                !
 ! R12   R(6,14)                 1.0939         estimate D2E/DX2                !
 ! R13   R(7,8)                  1.5192         estimate D2E/DX2                !
 ! R14   R(7,9)                  1.5166         estimate D2E/DX2                !
 ! R15   R(7,56)                 1.6081         estimate D2E/DX2                !
 ! R16   R(7,59)                 1.5452         estimate D2E/DX2                !
 ! R17   R(8,16)                 1.2326         estimate D2E/DX2                !
 ! R18   R(8,66)                 1.4014         estimate D2E/DX2                !
 ! R19   R(9,15)                 1.2401         estimate D2E/DX2                !
 ! R20   R(9,62)                 1.4014         estimate D2E/DX2                !
 ! R21   R(15,58)                2.1113         estimate D2E/DX2                !
 ! R22   R(16,58)                2.1555         estimate D2E/DX2                !
 ! R23   R(17,21)                1.4999         estimate D2E/DX2                !
 ! R24   R(17,58)                2.2202         estimate D2E/DX2                !
 ! R25   R(18,22)                1.5048         estimate D2E/DX2                !
 ! R26   R(18,58)                2.1736         estimate D2E/DX2                !
 ! R27   R(19,20)                1.4885         estimate D2E/DX2                !
 ! R28   R(20,23)                1.5023         estimate D2E/DX2                !
 ! R29   R(20,24)                1.4386         estimate D2E/DX2                !
 ! R30   R(20,31)                1.8729         estimate D2E/DX2                !
 ! R31   R(20,58)                2.8722         estimate D2E/DX2                !
 ! R32   R(21,25)                1.497          estimate D2E/DX2                !
 ! R33   R(21,26)                1.4359         estimate D2E/DX2                !
 ! R34   R(21,30)                1.8415         estimate D2E/DX2                !
 ! R35   R(21,58)                2.8265         estimate D2E/DX2                !
 ! R36   R(22,27)                1.489          estimate D2E/DX2                !
 ! R37   R(22,28)                1.4407         estimate D2E/DX2                !
 ! R38   R(22,29)                1.8704         estimate D2E/DX2                !
 ! R39   R(22,58)                2.8163         estimate D2E/DX2                !
 ! R40   R(23,58)                2.1647         estimate D2E/DX2                !
 ! R41   R(25,58)                2.2506         estimate D2E/DX2                !
 ! R42   R(27,58)                2.2923         estimate D2E/DX2                !
 ! R43   R(29,32)                1.3164         estimate D2E/DX2                !
 ! R44   R(29,33)                1.318          estimate D2E/DX2                !
 ! R45   R(29,34)                1.3184         estimate D2E/DX2                !
 ! R46   R(30,35)                1.3224         estimate D2E/DX2                !
 ! R47   R(30,36)                1.317          estimate D2E/DX2                !
 ! R48   R(30,37)                1.3166         estimate D2E/DX2                !
 ! R49   R(31,38)                1.3262         estimate D2E/DX2                !
 ! R50   R(31,39)                1.3181         estimate D2E/DX2                !
 ! R51   R(31,40)                1.3148         estimate D2E/DX2                !
 ! R52   R(41,42)                1.099          estimate D2E/DX2                !
 ! R53   R(41,43)                1.5646         estimate D2E/DX2                !
 ! R54   R(41,59)                1.5313         estimate D2E/DX2                !
 ! R55   R(43,44)                1.4778         estimate D2E/DX2                !
 ! R56   R(43,45)                1.4848         estimate D2E/DX2                !
 ! R57   R(43,54)                1.4578         estimate D2E/DX2                !
 ! R58   R(44,52)                1.1568         estimate D2E/DX2                !
 ! R59   R(45,53)                1.1573         estimate D2E/DX2                !
 ! R60   R(46,48)                1.3439         estimate D2E/DX2                !
 ! R61   R(46,49)                1.0905         estimate D2E/DX2                !
 ! R62   R(46,56)                1.5            estimate D2E/DX2                !
 ! R63   R(47,48)                1.456          estimate D2E/DX2                !
 ! R64   R(47,50)                1.0926         estimate D2E/DX2                !
 ! R65   R(47,55)                1.287          estimate D2E/DX2                !
 ! R66   R(48,51)                1.0915         estimate D2E/DX2                !
 ! R67   R(54,55)                1.3532         estimate D2E/DX2                !
 ! R68   R(54,56)                1.4494         estimate D2E/DX2                !
 ! R69   R(56,57)                1.1058         estimate D2E/DX2                !
 ! R70   R(59,60)                1.0999         estimate D2E/DX2                !
 ! R71   R(59,61)                1.0995         estimate D2E/DX2                !
 ! R72   R(62,63)                1.07           estimate D2E/DX2                !
 ! R73   R(62,64)                1.07           estimate D2E/DX2                !
 ! R74   R(62,65)                1.07           estimate D2E/DX2                !
 ! R75   R(66,67)                1.07           estimate D2E/DX2                !
 ! R76   R(66,68)                1.07           estimate D2E/DX2                !
 ! R77   R(66,69)                1.07           estimate D2E/DX2                !
 ! A1    A(2,1,6)              118.8133         estimate D2E/DX2                !
 ! A2    A(2,1,41)             122.5565         estimate D2E/DX2                !
 ! A3    A(6,1,41)             118.6215         estimate D2E/DX2                !
 ! A4    A(1,2,3)              120.404          estimate D2E/DX2                !
 ! A5    A(1,2,10)             120.6135         estimate D2E/DX2                !
 ! A6    A(3,2,10)             118.9824         estimate D2E/DX2                !
 ! A7    A(2,3,4)              120.3038         estimate D2E/DX2                !
 ! A8    A(2,3,11)             119.5671         estimate D2E/DX2                !
 ! A9    A(4,3,11)             120.129          estimate D2E/DX2                !
 ! A10   A(3,4,5)              119.7063         estimate D2E/DX2                !
 ! A11   A(3,4,12)             120.1386         estimate D2E/DX2                !
 ! A12   A(5,4,12)             120.1549         estimate D2E/DX2                !
 ! A13   A(4,5,6)              119.9747         estimate D2E/DX2                !
 ! A14   A(4,5,13)             120.2335         estimate D2E/DX2                !
 ! A15   A(6,5,13)             119.7916         estimate D2E/DX2                !
 ! A16   A(1,6,5)              120.7979         estimate D2E/DX2                !
 ! A17   A(1,6,14)             119.139          estimate D2E/DX2                !
 ! A18   A(5,6,14)             120.063          estimate D2E/DX2                !
 ! A19   A(8,7,9)              110.0549         estimate D2E/DX2                !
 ! A20   A(8,7,56)             107.5505         estimate D2E/DX2                !
 ! A21   A(8,7,59)             113.2948         estimate D2E/DX2                !
 ! A22   A(9,7,56)             105.4953         estimate D2E/DX2                !
 ! A23   A(9,7,59)             111.2335         estimate D2E/DX2                !
 ! A24   A(56,7,59)            108.838          estimate D2E/DX2                !
 ! A25   A(7,8,16)             126.4505         estimate D2E/DX2                !
 ! A26   A(7,8,66)             112.6494         estimate D2E/DX2                !
 ! A27   A(16,8,66)            120.8644         estimate D2E/DX2                !
 ! A28   A(7,9,15)             122.4368         estimate D2E/DX2                !
 ! A29   A(7,9,62)             115.9376         estimate D2E/DX2                !
 ! A30   A(15,9,62)            121.4892         estimate D2E/DX2                !
 ! A31   A(9,15,58)            124.8857         estimate D2E/DX2                !
 ! A32   A(8,16,58)            135.1976         estimate D2E/DX2                !
 ! A33   A(19,20,23)           105.176          estimate D2E/DX2                !
 ! A34   A(19,20,24)           118.5244         estimate D2E/DX2                !
 ! A35   A(19,20,31)           105.0524         estimate D2E/DX2                !
 ! A36   A(19,20,58)            57.5913         estimate D2E/DX2                !
 ! A37   A(23,20,24)           117.3654         estimate D2E/DX2                !
 ! A38   A(23,20,31)           103.037          estimate D2E/DX2                !
 ! A39   A(24,20,31)           105.9603         estimate D2E/DX2                !
 ! A40   A(24,20,58)           139.7785         estimate D2E/DX2                !
 ! A41   A(31,20,58)           113.6702         estimate D2E/DX2                !
 ! A42   A(17,21,25)           103.2158         estimate D2E/DX2                !
 ! A43   A(17,21,26)           118.4754         estimate D2E/DX2                !
 ! A44   A(17,21,30)           102.6802         estimate D2E/DX2                !
 ! A45   A(25,21,26)           118.7243         estimate D2E/DX2                !
 ! A46   A(25,21,30)           103.4504         estimate D2E/DX2                !
 ! A47   A(26,21,30)           108.2267         estimate D2E/DX2                !
 ! A48   A(26,21,58)           145.7988         estimate D2E/DX2                !
 ! A49   A(30,21,58)           105.959          estimate D2E/DX2                !
 ! A50   A(18,22,27)           104.0662         estimate D2E/DX2                !
 ! A51   A(18,22,28)           117.2875         estimate D2E/DX2                !
 ! A52   A(18,22,29)           104.1546         estimate D2E/DX2                !
 ! A53   A(27,22,28)           118.0059         estimate D2E/DX2                !
 ! A54   A(27,22,29)           105.6532         estimate D2E/DX2                !
 ! A55   A(28,22,29)           106.3167         estimate D2E/DX2                !
 ! A56   A(28,22,58)           140.2769         estimate D2E/DX2                !
 ! A57   A(29,22,58)           113.2556         estimate D2E/DX2                !
 ! A58   A(22,29,32)           109.3173         estimate D2E/DX2                !
 ! A59   A(22,29,33)           110.0096         estimate D2E/DX2                !
 ! A60   A(22,29,34)           108.4141         estimate D2E/DX2                !
 ! A61   A(32,29,33)           109.946          estimate D2E/DX2                !
 ! A62   A(32,29,34)           109.6786         estimate D2E/DX2                !
 ! A63   A(33,29,34)           109.4518         estimate D2E/DX2                !
 ! A64   A(21,30,35)           107.8275         estimate D2E/DX2                !
 ! A65   A(21,30,36)           109.411          estimate D2E/DX2                !
 ! A66   A(21,30,37)           109.6755         estimate D2E/DX2                !
 ! A67   A(35,30,36)           109.877          estimate D2E/DX2                !
 ! A68   A(35,30,37)           109.8846         estimate D2E/DX2                !
 ! A69   A(36,30,37)           110.1283         estimate D2E/DX2                !
 ! A70   A(20,31,38)           109.6156         estimate D2E/DX2                !
 ! A71   A(20,31,39)           109.9105         estimate D2E/DX2                !
 ! A72   A(20,31,40)           109.1039         estimate D2E/DX2                !
 ! A73   A(38,31,39)           109.0143         estimate D2E/DX2                !
 ! A74   A(38,31,40)           109.3105         estimate D2E/DX2                !
 ! A75   A(39,31,40)           109.8721         estimate D2E/DX2                !
 ! A76   A(1,41,42)            107.9522         estimate D2E/DX2                !
 ! A77   A(1,41,43)            112.8849         estimate D2E/DX2                !
 ! A78   A(1,41,59)            112.9288         estimate D2E/DX2                !
 ! A79   A(42,41,43)           103.4642         estimate D2E/DX2                !
 ! A80   A(42,41,59)           110.6331         estimate D2E/DX2                !
 ! A81   A(43,41,59)           108.573          estimate D2E/DX2                !
 ! A82   A(41,43,44)           110.0105         estimate D2E/DX2                !
 ! A83   A(41,43,45)           110.3118         estimate D2E/DX2                !
 ! A84   A(41,43,54)           109.6584         estimate D2E/DX2                !
 ! A85   A(44,43,45)           107.7276         estimate D2E/DX2                !
 ! A86   A(44,43,54)           110.004          estimate D2E/DX2                !
 ! A87   A(45,43,54)           109.1004         estimate D2E/DX2                !
 ! A88   A(48,46,49)           121.7148         estimate D2E/DX2                !
 ! A89   A(48,46,56)           120.3275         estimate D2E/DX2                !
 ! A90   A(49,46,56)           117.8135         estimate D2E/DX2                !
 ! A91   A(48,47,50)           121.3232         estimate D2E/DX2                !
 ! A92   A(48,47,55)           121.8575         estimate D2E/DX2                !
 ! A93   A(50,47,55)           116.7927         estimate D2E/DX2                !
 ! A94   A(46,48,47)           119.6723         estimate D2E/DX2                !
 ! A95   A(46,48,51)           120.9167         estimate D2E/DX2                !
 ! A96   A(47,48,51)           119.3959         estimate D2E/DX2                !
 ! A97   A(43,54,55)           114.0888         estimate D2E/DX2                !
 ! A98   A(43,54,56)           115.9252         estimate D2E/DX2                !
 ! A99   A(55,54,56)           124.8975         estimate D2E/DX2                !
 ! A100  A(47,55,54)           118.5239         estimate D2E/DX2                !
 ! A101  A(7,56,46)            112.2963         estimate D2E/DX2                !
 ! A102  A(7,56,54)            112.2237         estimate D2E/DX2                !
 ! A103  A(7,56,57)            103.9073         estimate D2E/DX2                !
 ! A104  A(46,56,54)           109.3027         estimate D2E/DX2                !
 ! A105  A(46,56,57)           110.9953         estimate D2E/DX2                !
 ! A106  A(54,56,57)           107.9454         estimate D2E/DX2                !
 ! A107  A(15,58,16)            77.7137         estimate D2E/DX2                !
 ! A108  A(15,58,17)            89.9803         estimate D2E/DX2                !
 ! A109  A(15,58,18)           142.6332         estimate D2E/DX2                !
 ! A110  A(15,58,20)           104.2703         estimate D2E/DX2                !
 ! A111  A(15,58,21)            92.1711         estimate D2E/DX2                !
 ! A112  A(15,58,22)           111.167          estimate D2E/DX2                !
 ! A113  A(15,58,23)           135.0426         estimate D2E/DX2                !
 ! A114  A(15,58,25)            89.2388         estimate D2E/DX2                !
 ! A115  A(15,58,27)            79.4768         estimate D2E/DX2                !
 ! A116  A(16,58,17)           148.1831         estimate D2E/DX2                !
 ! A117  A(16,58,18)            87.062          estimate D2E/DX2                !
 ! A118  A(16,58,20)            77.6312         estimate D2E/DX2                !
 ! A119  A(16,58,22)            80.9657         estimate D2E/DX2                !
 ! A120  A(16,58,23)            86.1141         estimate D2E/DX2                !
 ! A121  A(16,58,25)           143.993          estimate D2E/DX2                !
 ! A122  A(16,58,27)            76.4214         estimate D2E/DX2                !
 ! A123  A(17,58,18)            85.3172         estimate D2E/DX2                !
 ! A124  A(17,58,20)           134.1376         estimate D2E/DX2                !
 ! A125  A(17,58,22)            76.3187         estimate D2E/DX2                !
 ! A126  A(17,58,23)           121.6964         estimate D2E/DX2                !
 ! A127  A(17,58,25)            63.3863         estimate D2E/DX2                !
 ! A128  A(17,58,27)            72.5001         estimate D2E/DX2                !
 ! A129  A(18,58,20)           105.4564         estimate D2E/DX2                !
 ! A130  A(18,58,21)           102.4845         estimate D2E/DX2                !
 ! A131  A(18,58,23)            76.4014         estimate D2E/DX2                !
 ! A132  A(18,58,25)           120.7605         estimate D2E/DX2                !
 ! A133  A(18,58,27)            63.7427         estimate D2E/DX2                !
 ! A134  A(20,58,21)           103.2046         estimate D2E/DX2                !
 ! A135  A(20,58,22)           133.1419         estimate D2E/DX2                !
 ! A136  A(20,58,25)            73.2968         estimate D2E/DX2                !
 ! A137  A(20,58,27)           152.2968         estimate D2E/DX2                !
 ! A138  A(21,58,22)           105.0115         estimate D2E/DX2                !
 ! A139  A(21,58,23)            99.863          estimate D2E/DX2                !
 ! A140  A(21,58,27)           104.0705         estimate D2E/DX2                !
 ! A141  A(22,58,23)           107.1661         estimate D2E/DX2                !
 ! A142  A(22,58,25)           134.8405         estimate D2E/DX2                !
 ! A143  A(23,58,25)            79.7519         estimate D2E/DX2                !
 ! A144  A(23,58,27)           136.8543         estimate D2E/DX2                !
 ! A145  A(25,58,27)           134.4039         estimate D2E/DX2                !
 ! A146  A(7,59,41)            116.5645         estimate D2E/DX2                !
 ! A147  A(7,59,60)            109.6705         estimate D2E/DX2                !
 ! A148  A(7,59,61)            105.7315         estimate D2E/DX2                !
 ! A149  A(41,59,60)           109.4082         estimate D2E/DX2                !
 ! A150  A(41,59,61)           108.2853         estimate D2E/DX2                !
 ! A151  A(60,59,61)           106.6831         estimate D2E/DX2                !
 ! A152  A(9,62,63)            109.4712         estimate D2E/DX2                !
 ! A153  A(9,62,64)            109.4712         estimate D2E/DX2                !
 ! A154  A(9,62,65)            109.4712         estimate D2E/DX2                !
 ! A155  A(63,62,64)           109.4713         estimate D2E/DX2                !
 ! A156  A(63,62,65)           109.4712         estimate D2E/DX2                !
 ! A157  A(64,62,65)           109.4712         estimate D2E/DX2                !
 ! A158  A(8,66,67)            109.4712         estimate D2E/DX2                !
 ! A159  A(8,66,68)            109.4712         estimate D2E/DX2                !
 ! A160  A(8,66,69)            109.4712         estimate D2E/DX2                !
 ! A161  A(67,66,68)           109.4713         estimate D2E/DX2                !
 ! A162  A(67,66,69)           109.4712         estimate D2E/DX2                !
 ! A163  A(68,66,69)           109.4712         estimate D2E/DX2                !
 ! A164  L(43,44,52,3,-1)      175.5245         estimate D2E/DX2                !
 ! A165  L(43,45,53,2,-1)      178.874          estimate D2E/DX2                !
 ! A166  L(16,58,21,15,-1)     169.8848         estimate D2E/DX2                !
 ! A167  L(43,44,52,3,-2)      180.5058         estimate D2E/DX2                !
 ! A168  L(43,45,53,2,-2)      182.3139         estimate D2E/DX2                !
 ! A169  L(16,58,21,15,-2)     182.1434         estimate D2E/DX2                !
 ! D1    D(6,1,2,3)              0.0983         estimate D2E/DX2                !
 ! D2    D(6,1,2,10)           179.9948         estimate D2E/DX2                !
 ! D3    D(41,1,2,3)          -178.8195         estimate D2E/DX2                !
 ! D4    D(41,1,2,10)            1.0769         estimate D2E/DX2                !
 ! D5    D(2,1,6,5)             -0.0717         estimate D2E/DX2                !
 ! D6    D(2,1,6,14)           179.8219         estimate D2E/DX2                !
 ! D7    D(41,1,6,5)           178.8892         estimate D2E/DX2                !
 ! D8    D(41,1,6,14)           -1.2172         estimate D2E/DX2                !
 ! D9    D(2,1,41,42)         -161.8647         estimate D2E/DX2                !
 ! D10   D(2,1,41,43)           84.4054         estimate D2E/DX2                !
 ! D11   D(2,1,41,59)          -39.2322         estimate D2E/DX2                !
 ! D12   D(6,1,41,42)           19.2155         estimate D2E/DX2                !
 ! D13   D(6,1,41,43)          -94.5144         estimate D2E/DX2                !
 ! D14   D(6,1,41,59)          141.848          estimate D2E/DX2                !
 ! D15   D(1,2,3,4)             -0.0743         estimate D2E/DX2                !
 ! D16   D(1,2,3,11)          -179.9603         estimate D2E/DX2                !
 ! D17   D(10,2,3,4)          -179.9724         estimate D2E/DX2                !
 ! D18   D(10,2,3,11)            0.1416         estimate D2E/DX2                !
 ! D19   D(2,3,4,5)              0.0216         estimate D2E/DX2                !
 ! D20   D(2,3,4,12)          -179.8331         estimate D2E/DX2                !
 ! D21   D(11,3,4,5)           179.907          estimate D2E/DX2                !
 ! D22   D(11,3,4,12)            0.0523         estimate D2E/DX2                !
 ! D23   D(3,4,5,6)              0.0052         estimate D2E/DX2                !
 ! D24   D(3,4,5,13)          -179.801          estimate D2E/DX2                !
 ! D25   D(12,4,5,6)           179.8599         estimate D2E/DX2                !
 ! D26   D(12,4,5,13)            0.0536         estimate D2E/DX2                !
 ! D27   D(4,5,6,1)              0.0205         estimate D2E/DX2                !
 ! D28   D(4,5,6,14)          -179.8722         estimate D2E/DX2                !
 ! D29   D(13,5,6,1)           179.8276         estimate D2E/DX2                !
 ! D30   D(13,5,6,14)           -0.0651         estimate D2E/DX2                !
 ! D31   D(9,7,8,16)             4.1121         estimate D2E/DX2                !
 ! D32   D(9,7,8,66)          -178.0606         estimate D2E/DX2                !
 ! D33   D(56,7,8,16)         -110.3282         estimate D2E/DX2                !
 ! D34   D(56,7,8,66)           67.4991         estimate D2E/DX2                !
 ! D35   D(59,7,8,16)          129.3479         estimate D2E/DX2                !
 ! D36   D(59,7,8,66)          -52.8247         estimate D2E/DX2                !
 ! D37   D(8,7,9,15)           -39.5416         estimate D2E/DX2                !
 ! D38   D(8,7,9,62)           144.649          estimate D2E/DX2                !
 ! D39   D(56,7,9,15)           76.2008         estimate D2E/DX2                !
 ! D40   D(56,7,9,62)          -99.6087         estimate D2E/DX2                !
 ! D41   D(59,7,9,15)         -165.9467         estimate D2E/DX2                !
 ! D42   D(59,7,9,62)           18.2438         estimate D2E/DX2                !
 ! D43   D(8,7,56,46)           45.7864         estimate D2E/DX2                !
 ! D44   D(8,7,56,54)          -77.8196         estimate D2E/DX2                !
 ! D45   D(8,7,56,57)          165.8176         estimate D2E/DX2                !
 ! D46   D(9,7,56,46)          -71.6594         estimate D2E/DX2                !
 ! D47   D(9,7,56,54)          164.7346         estimate D2E/DX2                !
 ! D48   D(9,7,56,57)           48.3718         estimate D2E/DX2                !
 ! D49   D(59,7,56,46)         168.8892         estimate D2E/DX2                !
 ! D50   D(59,7,56,54)          45.2832         estimate D2E/DX2                !
 ! D51   D(59,7,56,57)         -71.0796         estimate D2E/DX2                !
 ! D52   D(8,7,59,41)           72.9637         estimate D2E/DX2                !
 ! D53   D(8,7,59,60)          -52.0149         estimate D2E/DX2                !
 ! D54   D(8,7,59,61)         -166.6871         estimate D2E/DX2                !
 ! D55   D(9,7,59,41)         -162.4365         estimate D2E/DX2                !
 ! D56   D(9,7,59,60)           72.5849         estimate D2E/DX2                !
 ! D57   D(9,7,59,61)          -42.0873         estimate D2E/DX2                !
 ! D58   D(56,7,59,41)         -46.6258         estimate D2E/DX2                !
 ! D59   D(56,7,59,60)        -171.6045         estimate D2E/DX2                !
 ! D60   D(56,7,59,61)          73.7233         estimate D2E/DX2                !
 ! D61   D(7,8,16,58)            3.6692         estimate D2E/DX2                !
 ! D62   D(66,8,16,58)        -173.9949         estimate D2E/DX2                !
 ! D63   D(7,8,66,67)          -36.7361         estimate D2E/DX2                !
 ! D64   D(7,8,66,68)           83.2639         estimate D2E/DX2                !
 ! D65   D(7,8,66,69)         -156.7361         estimate D2E/DX2                !
 ! D66   D(16,8,66,67)         141.228          estimate D2E/DX2                !
 ! D67   D(16,8,66,68)         -98.772          estimate D2E/DX2                !
 ! D68   D(16,8,66,69)          21.228          estimate D2E/DX2                !
 ! D69   D(7,9,15,58)           66.7844         estimate D2E/DX2                !
 ! D70   D(62,9,15,58)        -117.6353         estimate D2E/DX2                !
 ! D71   D(7,9,62,63)          -58.9471         estimate D2E/DX2                !
 ! D72   D(7,9,62,64)           61.0529         estimate D2E/DX2                !
 ! D73   D(7,9,62,65)         -178.9471         estimate D2E/DX2                !
 ! D74   D(15,9,62,63)         125.2003         estimate D2E/DX2                !
 ! D75   D(15,9,62,64)        -114.7997         estimate D2E/DX2                !
 ! D76   D(15,9,62,65)           5.2003         estimate D2E/DX2                !
 ! D77   D(9,15,58,16)         -42.2323         estimate D2E/DX2                !
 ! D78   D(9,15,58,17)         167.3403         estimate D2E/DX2                !
 ! D79   D(9,15,58,18)        -110.4164         estimate D2E/DX2                !
 ! D80   D(9,15,58,20)          31.4121         estimate D2E/DX2                !
 ! D81   D(9,15,58,21)         135.6243         estimate D2E/DX2                !
 ! D82   D(9,15,58,22)        -117.3602         estimate D2E/DX2                !
 ! D83   D(9,15,58,23)          29.3302         estimate D2E/DX2                !
 ! D84   D(9,15,58,25)         103.9563         estimate D2E/DX2                !
 ! D85   D(9,15,58,27)        -120.465          estimate D2E/DX2                !
 ! D86   D(8,16,58,15)           9.1782         estimate D2E/DX2                !
 ! D87   D(8,16,58,17)          78.5875         estimate D2E/DX2                !
 ! D88   D(8,16,58,18)         154.8321         estimate D2E/DX2                !
 ! D89   D(8,16,58,20)         -98.6419         estimate D2E/DX2                !
 ! D90   D(8,16,58,22)         123.309          estimate D2E/DX2                !
 ! D91   D(8,16,58,23)        -128.6113         estimate D2E/DX2                !
 ! D92   D(8,16,58,25)         -61.9892         estimate D2E/DX2                !
 ! D93   D(8,16,58,27)          91.1484         estimate D2E/DX2                !
 ! D94   D(19,20,31,38)          6.2983         estimate D2E/DX2                !
 ! D95   D(19,20,31,39)       -113.5003         estimate D2E/DX2                !
 ! D96   D(19,20,31,40)        125.9654         estimate D2E/DX2                !
 ! D97   D(23,20,31,38)        116.2073         estimate D2E/DX2                !
 ! D98   D(23,20,31,39)         -3.5912         estimate D2E/DX2                !
 ! D99   D(23,20,31,40)       -124.1256         estimate D2E/DX2                !
 ! D100  D(24,20,31,38)       -119.9467         estimate D2E/DX2                !
 ! D101  D(24,20,31,39)        120.2548         estimate D2E/DX2                !
 ! D102  D(24,20,31,40)         -0.2795         estimate D2E/DX2                !
 ! D103  D(58,20,31,38)         67.083          estimate D2E/DX2                !
 ! D104  D(58,20,31,39)        -52.7155         estimate D2E/DX2                !
 ! D105  D(58,20,31,40)       -173.2499         estimate D2E/DX2                !
 ! D106  D(19,20,58,15)          2.3398         estimate D2E/DX2                !
 ! D107  D(19,20,58,16)         76.0458         estimate D2E/DX2                !
 ! D108  D(19,20,58,17)       -101.9193         estimate D2E/DX2                !
 ! D109  D(19,20,58,18)        159.4377         estimate D2E/DX2                !
 ! D110  D(19,20,58,21)        -93.3895         estimate D2E/DX2                !
 ! D111  D(19,20,58,22)        140.8425         estimate D2E/DX2                !
 ! D112  D(19,20,58,25)        -82.4601         estimate D2E/DX2                !
 ! D113  D(19,20,58,27)         96.8727         estimate D2E/DX2                !
 ! D114  D(24,20,58,15)         99.5371         estimate D2E/DX2                !
 ! D115  D(24,20,58,16)        173.2431         estimate D2E/DX2                !
 ! D116  D(24,20,58,17)         -4.722          estimate D2E/DX2                !
 ! D117  D(24,20,58,18)       -103.3651         estimate D2E/DX2                !
 ! D118  D(24,20,58,21)          3.8078         estimate D2E/DX2                !
 ! D119  D(24,20,58,22)       -121.9602         estimate D2E/DX2                !
 ! D120  D(24,20,58,25)         14.7371         estimate D2E/DX2                !
 ! D121  D(24,20,58,27)       -165.93           estimate D2E/DX2                !
 ! D122  D(31,20,58,15)        -90.9619         estimate D2E/DX2                !
 ! D123  D(31,20,58,16)        -17.2559         estimate D2E/DX2                !
 ! D124  D(31,20,58,17)        164.7791         estimate D2E/DX2                !
 ! D125  D(31,20,58,18)         66.136          estimate D2E/DX2                !
 ! D126  D(31,20,58,21)        173.3088         estimate D2E/DX2                !
 ! D127  D(31,20,58,22)         47.5409         estimate D2E/DX2                !
 ! D128  D(31,20,58,25)       -175.7618         estimate D2E/DX2                !
 ! D129  D(31,20,58,27)          3.571          estimate D2E/DX2                !
 ! D130  D(17,21,30,35)         54.2328         estimate D2E/DX2                !
 ! D131  D(17,21,30,36)        -65.239          estimate D2E/DX2                !
 ! D132  D(17,21,30,37)        173.8649         estimate D2E/DX2                !
 ! D133  D(25,21,30,35)        -52.9101         estimate D2E/DX2                !
 ! D134  D(25,21,30,36)       -172.3819         estimate D2E/DX2                !
 ! D135  D(25,21,30,37)         66.722          estimate D2E/DX2                !
 ! D136  D(26,21,30,35)       -179.709          estimate D2E/DX2                !
 ! D137  D(26,21,30,36)         60.8191         estimate D2E/DX2                !
 ! D138  D(26,21,30,37)        -60.0769         estimate D2E/DX2                !
 ! D139  D(58,21,30,35)          1.3352         estimate D2E/DX2                !
 ! D140  D(58,21,30,36)       -118.1366         estimate D2E/DX2                !
 ! D141  D(58,21,30,37)        120.9673         estimate D2E/DX2                !
 ! D142  D(26,21,58,15)          1.84           estimate D2E/DX2                !
 ! D143  D(26,21,58,18)       -143.5456         estimate D2E/DX2                !
 ! D144  D(26,21,58,20)        107.0447         estimate D2E/DX2                !
 ! D145  D(26,21,58,22)       -110.7591         estimate D2E/DX2                !
 ! D146  D(26,21,58,23)        138.3383         estimate D2E/DX2                !
 ! D147  D(26,21,58,27)        -77.8534         estimate D2E/DX2                !
 ! D148  D(30,21,58,15)       -179.9248         estimate D2E/DX2                !
 ! D149  D(30,21,58,18)         34.6897         estimate D2E/DX2                !
 ! D150  D(30,21,58,20)        -74.7201         estimate D2E/DX2                !
 ! D151  D(30,21,58,22)         67.4761         estimate D2E/DX2                !
 ! D152  D(30,21,58,23)        -43.4264         estimate D2E/DX2                !
 ! D153  D(30,21,58,27)        100.3818         estimate D2E/DX2                !
 ! D154  D(18,22,29,32)        125.6392         estimate D2E/DX2                !
 ! D155  D(18,22,29,33)          4.8182         estimate D2E/DX2                !
 ! D156  D(18,22,29,34)       -114.8366         estimate D2E/DX2                !
 ! D157  D(27,22,29,32)         16.3114         estimate D2E/DX2                !
 ! D158  D(27,22,29,33)       -104.5097         estimate D2E/DX2                !
 ! D159  D(27,22,29,34)        135.8356         estimate D2E/DX2                !
 ! D160  D(28,22,29,32)       -109.8556         estimate D2E/DX2                !
 ! D161  D(28,22,29,33)        129.3233         estimate D2E/DX2                !
 ! D162  D(28,22,29,34)          9.6686         estimate D2E/DX2                !
 ! D163  D(58,22,29,32)         73.6802         estimate D2E/DX2                !
 ! D164  D(58,22,29,33)        -47.1408         estimate D2E/DX2                !
 ! D165  D(58,22,29,34)       -166.7956         estimate D2E/DX2                !
 ! D166  D(28,22,58,15)         86.4932         estimate D2E/DX2                !
 ! D167  D(28,22,58,16)         13.5084         estimate D2E/DX2                !
 ! D168  D(28,22,58,17)        171.0627         estimate D2E/DX2                !
 ! D169  D(28,22,58,20)        -49.9876         estimate D2E/DX2                !
 ! D170  D(28,22,58,21)       -175.1176         estimate D2E/DX2                !
 ! D171  D(28,22,58,23)        -69.5455         estimate D2E/DX2                !
 ! D172  D(28,22,58,25)       -162.1009         estimate D2E/DX2                !
 ! D173  D(29,22,58,15)        -98.821          estimate D2E/DX2                !
 ! D174  D(29,22,58,16)       -171.8058         estimate D2E/DX2                !
 ! D175  D(29,22,58,17)        -14.2515         estimate D2E/DX2                !
 ! D176  D(29,22,58,20)        124.6982         estimate D2E/DX2                !
 ! D177  D(29,22,58,21)         -0.4318         estimate D2E/DX2                !
 ! D178  D(29,22,58,23)        105.1403         estimate D2E/DX2                !
 ! D179  D(29,22,58,25)         12.5849         estimate D2E/DX2                !
 ! D180  D(1,41,43,44)          56.8929         estimate D2E/DX2                !
 ! D181  D(1,41,43,45)         -61.8147         estimate D2E/DX2                !
 ! D182  D(1,41,43,54)         178.0036         estimate D2E/DX2                !
 ! D183  D(42,41,43,44)        -59.535          estimate D2E/DX2                !
 ! D184  D(42,41,43,45)       -178.2426         estimate D2E/DX2                !
 ! D185  D(42,41,43,54)         61.5757         estimate D2E/DX2                !
 ! D186  D(59,41,43,44)       -177.0963         estimate D2E/DX2                !
 ! D187  D(59,41,43,45)         64.1961         estimate D2E/DX2                !
 ! D188  D(59,41,43,54)        -55.9856         estimate D2E/DX2                !
 ! D189  D(1,41,59,7)          178.5735         estimate D2E/DX2                !
 ! D190  D(1,41,59,60)         -56.3151         estimate D2E/DX2                !
 ! D191  D(1,41,59,61)          59.5961         estimate D2E/DX2                !
 ! D192  D(42,41,59,7)         -60.3032         estimate D2E/DX2                !
 ! D193  D(42,41,59,60)         64.8082         estimate D2E/DX2                !
 ! D194  D(42,41,59,61)       -179.2806         estimate D2E/DX2                !
 ! D195  D(43,41,59,7)          52.5883         estimate D2E/DX2                !
 ! D196  D(43,41,59,60)        177.6997         estimate D2E/DX2                !
 ! D197  D(43,41,59,61)        -66.3891         estimate D2E/DX2                !
 ! D198  D(41,43,54,55)        -94.636          estimate D2E/DX2                !
 ! D199  D(41,43,54,56)         61.4485         estimate D2E/DX2                !
 ! D200  D(44,43,54,55)         26.4786         estimate D2E/DX2                !
 ! D201  D(44,43,54,56)       -177.4369         estimate D2E/DX2                !
 ! D202  D(45,43,54,55)        144.4471         estimate D2E/DX2                !
 ! D203  D(45,43,54,56)        -59.4684         estimate D2E/DX2                !
 ! D204  D(49,46,48,47)        178.7901         estimate D2E/DX2                !
 ! D205  D(49,46,48,51)          0.2122         estimate D2E/DX2                !
 ! D206  D(56,46,48,47)         -5.6709         estimate D2E/DX2                !
 ! D207  D(56,46,48,51)        175.7511         estimate D2E/DX2                !
 ! D208  D(48,46,56,7)        -105.0255         estimate D2E/DX2                !
 ! D209  D(48,46,56,54)         20.1972         estimate D2E/DX2                !
 ! D210  D(48,46,56,57)        139.1502         estimate D2E/DX2                !
 ! D211  D(49,46,56,7)          70.6843         estimate D2E/DX2                !
 ! D212  D(49,46,56,54)       -164.093          estimate D2E/DX2                !
 ! D213  D(49,46,56,57)        -45.14           estimate D2E/DX2                !
 ! D214  D(50,47,48,46)        176.2617         estimate D2E/DX2                !
 ! D215  D(50,47,48,51)         -5.1386         estimate D2E/DX2                !
 ! D216  D(55,47,48,46)         -5.6728         estimate D2E/DX2                !
 ! D217  D(55,47,48,51)        172.9269         estimate D2E/DX2                !
 ! D218  D(48,47,55,54)         -0.6181         estimate D2E/DX2                !
 ! D219  D(50,47,55,54)        177.5306         estimate D2E/DX2                !
 ! D220  D(43,54,55,47)        173.1326         estimate D2E/DX2                !
 ! D221  D(56,54,55,47)         19.5257         estimate D2E/DX2                !
 ! D222  D(43,54,56,7)         -56.1053         estimate D2E/DX2                !
 ! D223  D(43,54,56,46)        178.6299         estimate D2E/DX2                !
 ! D224  D(43,54,56,57)         57.8008         estimate D2E/DX2                !
 ! D225  D(55,54,56,7)          97.0724         estimate D2E/DX2                !
 ! D226  D(55,54,56,46)        -28.1924         estimate D2E/DX2                !
 ! D227  D(55,54,56,57)       -149.0215         estimate D2E/DX2                !
 --------------------------------------------------------------------------------
 Trust Radius=3.00D-01 FncErr=1.00D-07 GrdErr=1.00D-06 EigMax=2.50D+02 EigMin=1.00D-04
 Number of steps in this run=    414 maximum allowed number of steps=    414.
 GradGradGradGradGradGradGradGradGradGradGradGradGradGradGradGradGradGrad

 Leave Link  103 at Mon Mar  3 06:18:45 2025, MaxMem= 82678120448 cpu:               1.7 elap:               0.3
 (Enter /sysapps/ubuntu-applications/gaussian-new/avx/g16/l202.exe)
 Stoichiometry    C23H18F9N4O11S3Sc
 Framework group  C1[X(C23H18F9N4O11S3Sc)]
 Deg. of freedom   201
 Full point group                 C1      NOp   1
 Largest Abelian subgroup         C1      NOp   1
 Largest concise Abelian subgroup C1      NOp   1
                         Standard orientation:                         
 ---------------------------------------------------------------------
 Center     Atomic      Atomic             Coordinates (Angstroms)
 Number     Number       Type             X           Y           Z
 ---------------------------------------------------------------------
      1          6           0        5.550064   -0.747679    0.132830
      2          6           0        5.837006   -1.484212    1.291659
      3          6           0        6.991027   -2.267873    1.363534
      4          6           0        7.870799   -2.327339    0.280983
      5          6           0        7.592920   -1.598119   -0.877842
      6          6           0        6.440652   -0.815181   -0.949067
      7          6           0        1.790632    0.375007    0.611828
      8          6           0        1.162370    0.440388   -0.769817
      9          6           0        0.773169   -0.117141    1.623035
     10          1           0        5.163786   -1.453076    2.151676
     11          1           0        7.200725   -2.836349    2.272274
     12          1           0        8.771089   -2.943194    0.339096
     13          1           0        8.273535   -1.640904   -1.731017
     14          1           0        6.220598   -0.245293   -1.856450
     15          8           0       -0.415082    0.236769    1.597249
     16          8           0       -0.016255    0.212855   -1.049880
     17          8           0       -3.461562    0.446791    1.354966
     18          8           0       -2.928523    0.583273   -1.571346
     19          8           0       -0.259201   -2.132136    0.283823
     20         16           0       -0.929885   -2.847017   -0.836274
     21         16           0       -3.808753   -0.882555    1.956638
     22         16           0       -2.716948    2.039163   -1.255229
     23          8           0       -2.030522   -1.928709   -1.285945
     24          8           0       -1.257081   -4.237506   -0.665803
     25          8           0       -2.719642   -1.779602    1.456353
     26          8           0       -4.160178   -0.933503    3.347897
     27          8           0       -1.835333    2.024557   -0.055360
     28          8           0       -2.358102    2.906908   -2.347835
     29          6           0       -4.386876    2.622615   -0.647413
     30          6           0       -5.276416   -1.400759    0.972495
     31          6           0        0.287617   -2.774948   -2.257633
     32          9           0       -4.248574    3.180926    0.536701
     33          9           0       -5.219651    1.603960   -0.569715
     34          9           0       -4.855571    3.508532   -1.503949
     35          9           0       -4.942347   -1.357083   -0.306244
     36          9           0       -6.273237   -0.571598    1.203464
     37          9           0       -5.621477   -2.627443    1.303540
     38          9           0        1.429284   -2.245381   -1.839493
     39          9           0       -0.200603   -2.030404   -3.229556
     40          9           0        0.509025   -3.994302   -2.696828
     41          6           0        4.326852    0.138047    0.011751
     42          1           0        4.154115    0.332976   -1.055980
     43          6           0        4.547876    1.566071    0.611683
     44          6           0        5.704272    2.215104   -0.040451
     45          6           0        4.840461    1.475145    2.064480
     46          6           0        1.016438    2.831887    0.787396
     47          6           0        2.309707    3.783786   -1.025008
     48          6           0        1.085004    3.692061   -0.242890
     49          1           0        0.122948    2.749854    1.407237
     50          1           0        2.375122    4.428971   -1.904312
     51          1           0        0.242492    4.341031   -0.488663
     52          7           0        6.659058    2.650945   -0.526777
     53          7           0        5.033040    1.366803    3.200485
     54          7           0        3.348403    2.371222    0.416114
     55          7           0        3.375285    3.141071   -0.696458
     56          6           0        2.144100    1.879746    1.055498
     57          1           0        2.343560    1.797159    2.140070
     58         21           0       -1.791337   -0.263490    0.076243
     59          6           0        3.080532   -0.474505    0.656971
     60          1           0        2.888441   -1.463069    0.214790
     61          1           0        3.290607   -0.641109    1.723327
     62          6           0        1.273012   -0.929035    2.650122
     63          1           0        1.736051   -1.795617    2.226412
     64          1           0        1.994929   -0.380918    3.218720
     65          1           0        0.469698   -1.230468    3.289437
     66          6           0        2.069912    0.848564   -1.756570
     67          1           0        2.728249    1.588467   -1.351558
     68          1           0        2.640549    0.005848   -2.086876
     69          1           0        1.533864    1.263028   -2.584684
 ---------------------------------------------------------------------
 Rotational constants (GHZ):           0.0922456           0.0365690           0.0322021
 Leave Link  202 at Mon Mar  3 06:18:45 2025, MaxMem= 82678120448 cpu:               5.8 elap:               0.7
 (Enter /sysapps/ubuntu-applications/gaussian-new/avx/g16/l301.exe)
 General basis read from cards:  (5D, 7F)
 Centers:      10     11     12     13     14     42     49     50     51     57
 Centers:      60     61     63     64     65     67     68     69
 S 3 1.00
     Exponent=  1.3010701000D+01 Coefficients=  1.9682158000D-02
     Exponent=  1.9622572000D+00 Coefficients=  1.3796524000D-01
     Exponent=  4.4453796000D-01 Coefficients=  4.7831935000D-01
 S 1 1.00
     Exponent=  1.2194962000D-01 Coefficients=  1.0000000000D+00
 P 1 1.00
     Exponent=  8.0000000000D-01 Coefficients=  1.0000000000D+00
 ****
 Centers:       1      2      3      4      5      6      7      8      9     29
 Centers:      30     31     41     43     44     45     46     47     48     56
 Centers:      59     62     66
 S 5 1.00
     Exponent=  1.2384016938D+03 Coefficients=  5.4568832082D-03
     Exponent=  1.8629004992D+02 Coefficients=  4.0638409211D-02
     Exponent=  4.2251176346D+01 Coefficients=  1.8025593888D-01
     Exponent=  1.1676557932D+01 Coefficients=  4.6315121755D-01
     Exponent=  3.5930506482D+00 Coefficients=  4.4087173314D-01
 S 1 1.00
     Exponent=  4.0245147363D-01 Coefficients=  1.0000000000D+00
 S 1 1.00
     Exponent=  1.3090182668D-01 Coefficients=  1.0000000000D+00
 P 3 1.00
     Exponent=  9.4680970621D+00 Coefficients=  3.8387871728D-02
     Exponent=  2.0103545142D+00 Coefficients=  2.1117025112D-01
     Exponent=  5.4771004707D-01 Coefficients=  5.1328172114D-01
 P 1 1.00
     Exponent=  1.5268613795D-01 Coefficients=  1.0000000000D+00
 D 1 1.00
     Exponent=  8.0000000000D-01 Coefficients=  1.0000000000D+00
 ****
 Centers:      52     53     54     55
 S 5 1.00
     Exponent=  1.7128415853D+03 Coefficients= -5.3934125305D-03
     Exponent=  2.5764812677D+02 Coefficients= -4.0221581118D-02
     Exponent=  5.8458245853D+01 Coefficients= -1.7931144990D-01
     Exponent=  1.6198367905D+01 Coefficients= -4.6376317823D-01
     Exponent=  5.0052600809D+00 Coefficients= -4.4171422662D-01
 S 1 1.00
     Exponent=  5.8731856571D-01 Coefficients=  1.0000000000D+00
 S 1 1.00
     Exponent=  1.8764592253D-01 Coefficients=  1.0000000000D+00
 P 3 1.00
     Exponent=  1.3571470233D+01 Coefficients= -4.0072398852D-02
     Exponent=  2.9257372874D+00 Coefficients= -2.1807045028D-01
     Exponent=  7.9927750754D-01 Coefficients= -5.1294466049D-01
 P 1 1.00
     Exponent=  2.1954348034D-01 Coefficients=  1.0000000000D+00
 D 1 1.00
     Exponent=  1.0000000000D+00 Coefficients=  1.0000000000D+00
 ****
 Centers:      15     16     17     18     19     23     24     25     26     27
 Centers:      28
 S 5 1.00
     Exponent=  2.2661767785D+03 Coefficients= -5.3431809926D-03
     Exponent=  3.4087010191D+02 Coefficients= -3.9890039230D-02
     Exponent=  7.7363135167D+01 Coefficients= -1.7853911985D-01
     Exponent=  2.1479644940D+01 Coefficients= -4.6427684959D-01
     Exponent=  6.6589433124D+00 Coefficients= -4.4309745172D-01
 S 1 1.00
     Exponent=  8.0975975668D-01 Coefficients=  1.0000000000D+00
 S 1 1.00
     Exponent=  2.5530772234D-01 Coefficients=  1.0000000000D+00
 P 3 1.00
     Exponent=  1.7721504317D+01 Coefficients=  4.3394573193D-02
     Exponent=  3.8635505440D+00 Coefficients=  2.3094120765D-01
     Exponent=  1.0480920883D+00 Coefficients=  5.1375311064D-01
 P 1 1.00
     Exponent=  2.7641544411D-01 Coefficients=  1.0000000000D+00
 D 1 1.00
     Exponent=  1.2000000000D+00 Coefficients=  1.0000000000D+00
 ****
 Centers:      32     33     34     35     36     37     38     39     40
 S 5 1.00
     Exponent=  2.8948325990D+03 Coefficients= -5.3408255515D-03
     Exponent=  4.3541939120D+02 Coefficients= -3.9904258866D-02
     Exponent=  9.8843328866D+01 Coefficients= -1.7912768038D-01
     Exponent=  2.7485198001D+01 Coefficients= -4.6758090825D-01
     Exponent=  8.5405498171D+00 Coefficients= -4.4653131020D-01
 S 1 1.00
     Exponent=  1.0654578038D+00 Coefficients=  1.0000000000D+00
 S 1 1.00
     Exponent=  3.3247346748D-01 Coefficients=  1.0000000000D+00
 P 3 1.00
     Exponent=  2.2696633924D+01 Coefficients= -4.5212874436D-02
     Exponent=  4.9872339257D+00 Coefficients= -2.3754317067D-01
     Exponent=  1.3491613954D+00 Coefficients= -5.1287353587D-01
 P 1 1.00
     Exponent=  3.4829881977D-01 Coefficients=  1.0000000000D+00
 D 1 1.00
     Exponent=  1.4000000000D+00 Coefficients=  1.0000000000D+00
 ****
 Centers:      20     21     22
 S 5 1.00
     Exponent=  9.1849303010D+03 Coefficients= -2.2294387756D-03
     Exponent=  1.3815105503D+03 Coefficients= -1.6683029937D-02
     Exponent=  3.1387147580D+02 Coefficients= -7.5262436116D-02
     Exponent=  8.8053870623D+01 Coefficients= -1.9376827038D-01
     Exponent=  2.7039914905D+01 Coefficients= -1.7718020803D-01
 S 3 1.00
     Exponent=  4.5648731303D+01 Coefficients= -1.0736062573D-01
     Exponent=  4.9664522326D+00 Coefficients=  6.5066293018D-01
     Exponent=  2.0116242047D+00 Coefficients=  5.9712155354D-01
 S 1 1.00
     Exponent=  3.5661077013D-01 Coefficients=  1.0000000000D+00
 S 1 1.00
     Exponent=  1.3507221477D-01 Coefficients=  1.0000000000D+00
 P 5 1.00
     Exponent=  2.6198233439D+02 Coefficients= -9.2729929822D-03
     Exponent=  6.1306894736D+01 Coefficients= -6.6547669241D-02
     Exponent=  1.9103729887D+01 Coefficients= -2.4828595903D-01
     Exponent=  6.6567720378D+00 Coefficients= -4.8703847402D-01
     Exponent=  2.3959635161D+00 Coefficients= -3.9337850312D-01
 P 1 1.00
     Exponent=  6.1776161679D-01 Coefficients=  1.0000000000D+00
 P 1 1.00
     Exponent=  1.6993376871D-01 Coefficients=  1.0000000000D+00
 D 1 1.00
     Exponent=  5.5000000000D-01 Coefficients=  1.0000000000D+00
 ****
 Centers:      58
 S 8 1.00
     Exponent=  1.9161291874D+05 Coefficients=  2.3076475942D-04
     Exponent=  2.8723850363D+04 Coefficients=  1.7890329946D-03
     Exponent=  6.5370116490D+03 Coefficients=  9.2990401140D-03
     Exponent=  1.8503097171D+03 Coefficients=  3.7739438011D-02
     Exponent=  6.0238855156D+02 Coefficients=  1.2227148359D-01
     Exponent=  2.1617324766D+02 Coefficients=  2.8814821470D-01
     Exponent=  8.3712517880D+01 Coefficients=  4.0517543099D-01
     Exponent=  3.2908707189D+01 Coefficients=  2.0566019623D-01
 S 4 1.00
     Exponent=  2.1134393234D+02 Coefficients= -2.4527991462D-02
     Exponent=  6.5128920139D+01 Coefficients= -1.1570158142D-01
     Exponent=  1.0034311535D+01 Coefficients=  5.5995283317D-01
     Exponent=  4.1596884597D+00 Coefficients=  5.6087765073D-01
 S 2 1.00
     Exponent=  6.0009041613D+00 Coefficients= -2.2840494325D-01
     Exponent=  9.8255784150D-01 Coefficients=  7.1948970378D-01
 S 1 1.00
     Exponent=  4.2483192773D-01 Coefficients=  1.0000000000D+00
 S 1 1.00
     Exponent=  7.7185462096D-02 Coefficients=  1.0000000000D+00
 S 1 1.00
     Exponent=  3.0147219702D-02 Coefficients=  1.0000000000D+00
 P 6 1.00
     Exponent=  9.4734122823D+02 Coefficients=  2.4737208744D-03
     Exponent=  2.2409699732D+02 Coefficients=  1.9742967060D-02
     Exponent=  7.1560334882D+01 Coefficients=  9.0357147549D-02
     Exponent=  2.6444824490D+01 Coefficients=  2.5201602503D-01
     Exponent=  1.0393798285D+01 Coefficients=  3.9675535929D-01
     Exponent=  4.1606304559D+00 Coefficients=  2.3208624517D-01
 P 3 1.00
     Exponent=  1.5565737135D+01 Coefficients= -2.7129423974D-02
     Exponent=  2.1121544865D+00 Coefficients=  5.5109256629D-01
     Exponent=  8.4184709021D-01 Coefficients=  1.0090635806D+00
 P 1 1.00
     Exponent=  3.2297542652D-01 Coefficients=  1.0000000000D+00
 P 1 1.00
     Exponent=  8.9748000000D-02 Coefficients=  1.0000000000D+00
 D 4 1.00
     Exponent=  3.0989390993D+01 Coefficients=  1.1902837431D-02
     Exponent=  8.6905465069D+00 Coefficients=  6.7655856850D-02
     Exponent=  2.9520256337D+00 Coefficients=  2.1332539722D-01
     Exponent=  1.0761910745D+00 Coefficients=  3.8391075578D-01
 D 1 1.00
     Exponent=  3.8338915095D-01 Coefficients=  4.3354716259D-01
 D 1 1.00
     Exponent=  1.2534686113D-01 Coefficients=  2.4509263822D-01
 D 1 1.00
     Exponent=  4.1000000000D-02 Coefficients=  1.0000000000D+00
 F 1 1.00
     Exponent=  3.4500000000D-01 Coefficients=  1.0000000000D+00
 ****
 Ernie: Thresh=  0.10000D-02 Tol=  0.10000D-05 Strict=F.
 There are   904 symmetry adapted cartesian basis functions of A   symmetry.
 There are   847 symmetry adapted basis functions of A   symmetry.
   847 basis functions,  1514 primitive gaussians,   904 cartesian basis functions
   211 alpha electrons      211 beta electrons
       nuclear repulsion energy      9975.0592939875 Hartrees.
 IExCor= 7252 DFT=T Ex+Corr=MN15 ExCW=0 ScaHFX=  0.440000
 ScaDFX=  1.000000  1.000000  1.000000  1.000000 ScalE2=  1.000000  1.000000
 IRadAn=      5 IRanWt=     -1 IRanGd=            0 ICorTp=0 IEmpDi=  4
 NAtoms=   69 NActive=   69 NUniq=   69 SFac= 1.00D+00 NAtFMM=   60 NAOKFM=T Big=T
 Integral buffers will be    131072 words long.
 Raffenetti 2 integral format.
 Two-electron integral symmetry is turned on.
 ------------------------------------------------------------------------------
 Polarizable Continuum Model (PCM)
 =================================
 Model                : PCM.
 Atomic radii         : SMD-Coulomb.
 Polarization charges : Total charges.
 Charge compensation  : None.
 Solution method      : On-the-fly selection.
 Cavity type          : VdW (van der Waals Surface) (Alpha=1.000).
 Cavity algorithm     : GePol (No added spheres)
                        Default sphere list used, NSphG=   69.
                        Lebedev-Laikov grids with approx.  5.0 points / Ang**2.
                        Smoothing algorithm: York/Karplus (Gamma=1.0000).
                        Polarization charges: spherical gaussians, with
                                              point-specific exponents (IZeta= 3).
                        Self-potential: point-specific (ISelfS= 7).
                        Self-field    : sphere-specific E.n sum rule (ISelfD= 2).
 1st derivatives      : Analytical E(r).r(x)/FMM algorithm (CHGder, D1EAlg=3).
                        Cavity 1st derivative terms included.
 Solvent              : DiChloroEthane, Eps=  10.125000 Eps(inf)=   2.087447
 ------------------------------------------------------------------------------
 GePol: Number of generator spheres                  =      69
 GePol: Total number of spheres                      =      69
 GePol: Number of exposed spheres                    =      68 ( 98.55%)
 GePol: Number of points                             =    4704
 GePol: Average weight of points                     =       0.13
 GePol: Minimum weight of points                     =   0.19D-10
 GePol: Maximum weight of points                     =    0.21501
 GePol: Number of points with low weight             =     299
 GePol: Fraction of low-weight points (<1% of avg)   =       6.36%
 GePol: Cavity surface area                          =    607.028 Ang**2
 GePol: Cavity volume                                =    726.968 Ang**3
 ------------------------------------------------------------------------------
 Atomic radii for non-electrostatic terms: SMD-CDS.
 ------------------------------------------------------------------------------
 PCM non-electrostatic energy =         0.0038698439 Hartrees.
 Nuclear repulsion after PCM non-electrostatic terms =     9975.0631638314 Hartrees.
 Leave Link  301 at Mon Mar  3 06:18:46 2025, MaxMem= 82678120448 cpu:               5.6 elap:               0.7
 (Enter /sysapps/ubuntu-applications/gaussian-new/avx/g16/l302.exe)
 NPDir=0 NMtPBC=     1 NCelOv=     1 NCel=       1 NClECP=     1 NCelD=      1
         NCelK=      1 NCelE2=     1 NClLst=     1 CellRange=     0.0.
 One-electron integrals computed using PRISM.
 One-electron integral symmetry used in STVInt
 NBasis=   847 RedAO= T EigKep=  2.13D-04  NBF=   847
 NBsUse=   847 1.00D-06 EigRej= -1.00D+00 NBFU=   847
 Precomputing XC quadrature grid using
 IXCGrd= 4 IRadAn=           5 IRanWt=          -1 IRanGd=           0 AccXCQ= 0.00D+00.
 Generated NRdTot=       0 NPtTot=           0 NUsed=           0 NTot=          32
 NSgBfM=   859   859   859   859   859 MxSgAt=    69 MxSgA2=    69.
 Leave Link  302 at Mon Mar  3 06:20:18 2025, MaxMem= 82678120448 cpu:             916.4 elap:              91.7
 (Enter /sysapps/ubuntu-applications/gaussian-new/avx/g16/l303.exe)
 DipDrv:  MaxL=1.
 Leave Link  303 at Mon Mar  3 06:20:21 2025, MaxMem= 82678120448 cpu:              27.1 elap:               2.9
 (Enter /sysapps/ubuntu-applications/gaussian-new/avx/g16/l401.exe)
 ExpMin= 3.01D-02 ExpMax= 1.92D+05 ExpMxC= 1.85D+03 IAcc=3 IRadAn=         5 AccDes= 0.00D+00
 Harris functional with IExCor= 1009 and IRadAn=       5 diagonalized for initial guess.
 HarFok:  IExCor= 1009 AccDes= 0.00D+00 IRadAn=         5 IDoV= 1 UseB2=F ITyADJ=14
 ICtDFT=  3500011 ScaDFX=  1.000000  1.000000  1.000000  1.000000
 FoFCou: FMM=F IPFlag=           0 FMFlag=      100000 FMFlg1=        2001
         NFxFlg=           0 DoJE=T BraDBF=F KetDBF=T FulRan=T
         wScrn=  0.000000 ICntrl=       500 IOpCl=  0 I1Cent=   200000004 NGrid=           0
         NMat0=    1 NMatS0=      1 NMatT0=    0 NMatD0=    1 NMtDS0=    0 NMtDT0=    0
 Petite list used in FoFCou.
 Harris En= -4781.85043098301    
 JPrj=0 DoOrth=F DoCkMO=F.
 Leave Link  401 at Mon Mar  3 06:21:13 2025, MaxMem= 82678120448 cpu:             521.2 elap:              52.3
 (Enter /sysapps/ubuntu-applications/gaussian-new/avx/g16/l502.exe)
 Integral symmetry usage will be decided dynamically.
 Closed shell SCF:
 Using DIIS extrapolation, IDIIS=  1040.
 NGot= 82678120448 LenX= 82676454535 LenY= 82675636415
 Requested convergence on RMS density matrix=1.00D-08 within 500 cycles.
 Requested convergence on MAX density matrix=1.00D-06.
 Requested convergence on             energy=1.00D-06.
 No special actions if energy rises.
 Fock matrices will be formed incrementally for  20 cycles.

 Cycle   1  Pass 1  IDiag  1:
 FoFJK:  IHMeth= 1 ICntrl=       0 DoSepK=F KAlg= 0 I1Cent=           0 FoldK=F
 IRaf= 830000000 NMat=       1 IRICut=       1 DoRegI=T DoRafI=F ISym2E= 0 IDoP0=0 IntGTp=1.
 FoFCou: FMM=T IPFlag=           0 FMFlag=      100000 FMFlg1=        2001
         NFxFlg=           0 DoJE=F BraDBF=F KetDBF=F FulRan=T
         wScrn=  0.000000 ICntrl=         0 IOpCl=  0 I1Cent=           0 NGrid=           0
         NMat0=    1 NMatS0=      1 NMatT0=    0 NMatD0=    1 NMtDS0=    0 NMtDT0=    0
 Symmetry not used in FoFCou.
 FMM levels:  10  Number of levels for PrismC:   9
 Inv3:  Mode=1 IEnd=    66382848.
 Iteration    1 A*A^-1 deviation from unit magnitude is 8.44D-15 for   4701.
 Iteration    1 A*A^-1 deviation from orthogonality  is 4.62D-15 for   4701   4146.
 Iteration    1 A^-1*A deviation from unit magnitude is 8.88D-15 for   4701.
 Iteration    1 A^-1*A deviation from orthogonality  is 3.76D-14 for   1830   1829.
 E= -4780.19461966875    
 DIIS: error= 2.85D-02 at cycle   1 NSaved=   1.
 NSaved= 1 IEnMin= 1 EnMin= -4780.19461966875     IErMin= 1 ErrMin= 2.85D-02
 ErrMax= 2.85D-02  0.00D+00 EMaxC= 1.00D-01 BMatC= 1.94D+00 BMatP= 1.94D+00
 IDIUse=3 WtCom= 7.15D-01 WtEn= 2.85D-01
 Coeff-Com:  0.100D+01
 Coeff-En:   0.100D+01
 Coeff:      0.100D+01
 Gap=     0.273 Goal=   None    Shift=    0.000
 GapD=    0.273 DampG=1.000 DampE=0.250 DampFc=0.2500 IDamp=-1.
 Damping current iteration by 2.50D-01
 RMSDP=3.87D-03 MaxDP=4.91D-01              OVMax= 2.24D-01

 Cycle   2  Pass 1  IDiag  1:
 RMSU=  9.66D-04    CP:  9.98D-01
 E= -4780.71991203334     Delta-E=       -0.525292364588 Rises=F Damp=T
 DIIS: error= 1.14D-02 at cycle   2 NSaved=   2.
 NSaved= 2 IEnMin= 2 EnMin= -4780.71991203334     IErMin= 2 ErrMin= 1.14D-02
 ErrMax= 1.14D-02  0.00D+00 EMaxC= 1.00D-01 BMatC= 3.48D-01 BMatP= 1.94D+00
 IDIUse=3 WtCom= 8.86D-01 WtEn= 1.14D-01
 Coeff-Com: -0.589D+00 0.159D+01
 Coeff-En:   0.000D+00 0.100D+01
 Coeff:     -0.522D+00 0.152D+01
 Gap=     0.281 Goal=   None    Shift=    0.000
 RMSDP=1.09D-03 MaxDP=1.47D-01 DE=-5.25D-01 OVMax= 2.00D-01

 Cycle   3  Pass 1  IDiag  1:
 RMSU=  8.68D-04    CP:  9.92D-01  1.67D+00
 E= -4781.62912329983     Delta-E=       -0.909211266493 Rises=F Damp=F
 DIIS: error= 6.62D-03 at cycle   3 NSaved=   3.
 NSaved= 3 IEnMin= 3 EnMin= -4781.62912329983     IErMin= 3 ErrMin= 6.62D-03
 ErrMax= 6.62D-03  0.00D+00 EMaxC= 1.00D-01 BMatC= 5.30D-02 BMatP= 3.48D-01
 IDIUse=3 WtCom= 9.34D-01 WtEn= 6.62D-02
 Coeff-Com: -0.290D+00 0.679D+00 0.611D+00
 Coeff-En:   0.000D+00 0.000D+00 0.100D+01
 Coeff:     -0.271D+00 0.634D+00 0.637D+00
 Gap=     0.213 Goal=   None    Shift=    0.000
 RMSDP=4.03D-04 MaxDP=4.10D-02 DE=-9.09D-01 OVMax= 4.71D-02

 Cycle   4  Pass 1  IDiag  1:
 RMSU=  3.35D-04    CP:  9.95D-01  1.73D+00  7.56D-01
 E= -4781.66366120011     Delta-E=       -0.034537900276 Rises=F Damp=F
 DIIS: error= 4.61D-03 at cycle   4 NSaved=   4.
 NSaved= 4 IEnMin= 4 EnMin= -4781.66366120011     IErMin= 4 ErrMin= 4.61D-03
 ErrMax= 4.61D-03  0.00D+00 EMaxC= 1.00D-01 BMatC= 1.85D-02 BMatP= 5.30D-02
 IDIUse=3 WtCom= 9.54D-01 WtEn= 4.61D-02
 Coeff-Com: -0.112D+00 0.220D+00 0.387D+00 0.504D+00
 Coeff-En:   0.000D+00 0.000D+00 0.225D+00 0.775D+00
 Coeff:     -0.106D+00 0.210D+00 0.380D+00 0.517D+00
 Gap=     0.207 Goal=   None    Shift=    0.000
 RMSDP=1.93D-04 MaxDP=2.12D-02 DE=-3.45D-02 OVMax= 2.88D-02

 Cycle   5  Pass 1  IDiag  1:
 RMSU=  1.34D-04    CP:  9.94D-01  1.70D+00  8.17D-01  6.29D-01
 E= -4781.67714935065     Delta-E=       -0.013488150542 Rises=F Damp=F
 DIIS: error= 1.56D-03 at cycle   5 NSaved=   5.
 NSaved= 5 IEnMin= 5 EnMin= -4781.67714935065     IErMin= 5 ErrMin= 1.56D-03
 ErrMax= 1.56D-03  0.00D+00 EMaxC= 1.00D-01 BMatC= 2.54D-03 BMatP= 1.85D-02
 IDIUse=3 WtCom= 9.84D-01 WtEn= 1.56D-02
 Coeff-Com: -0.291D-01 0.374D-01 0.128D+00 0.306D+00 0.558D+00
 Coeff-En:   0.000D+00 0.000D+00 0.000D+00 0.103D+00 0.897D+00
[...]
 Alpha  occ. eigenvalues --   -0.65012  -0.64108  -0.63992  -0.63281  -0.62848
 Alpha  occ. eigenvalues --   -0.62520  -0.61720  -0.61489  -0.59946  -0.58733
 Alpha  occ. eigenvalues --   -0.58368  -0.58162  -0.57142  -0.56706  -0.56502
 Alpha  occ. eigenvalues --   -0.56125  -0.55998  -0.55732  -0.55530  -0.55400
 Alpha  occ. eigenvalues --   -0.55212  -0.55173  -0.54997  -0.54540  -0.54350
 Alpha  occ. eigenvalues --   -0.54229  -0.53759  -0.53593  -0.53563  -0.53155
 Alpha  occ. eigenvalues --   -0.52512  -0.52390  -0.52159  -0.52052  -0.52012
 Alpha  occ. eigenvalues --   -0.51779  -0.51549  -0.51217  -0.51095  -0.50670
 Alpha  occ. eigenvalues --   -0.50054  -0.49550  -0.49459  -0.48938  -0.48910
 Alpha  occ. eigenvalues --   -0.48577  -0.48021  -0.47695  -0.46951  -0.46562
 Alpha  occ. eigenvalues --   -0.46187  -0.46123  -0.45896  -0.45411  -0.45024
 Alpha  occ. eigenvalues --   -0.44597  -0.44495  -0.44229  -0.43906  -0.43548
 Alpha  occ. eigenvalues --   -0.43237  -0.42908  -0.42683  -0.42474  -0.42062
 Alpha  occ. eigenvalues --   -0.41838  -0.41494  -0.41462  -0.40838  -0.40715
 Alpha  occ. eigenvalues --   -0.40291  -0.40013  -0.39897  -0.39798  -0.39741
 Alpha  occ. eigenvalues --   -0.39179  -0.38909  -0.38396  -0.38169  -0.37957
 Alpha  occ. eigenvalues --   -0.37768  -0.37544  -0.37226  -0.36781  -0.36431
 Alpha  occ. eigenvalues --   -0.35782  -0.34783  -0.34004  -0.29712  -0.29660
 Alpha  occ. eigenvalues --   -0.26458
 Alpha virt. eigenvalues --   -0.06269  -0.05756  -0.03969  -0.02160  -0.01161
 Alpha virt. eigenvalues --   -0.00587   0.00359   0.00767   0.01255   0.01321
 Alpha virt. eigenvalues --    0.01612   0.03885   0.05137   0.06326   0.06946
 Alpha virt. eigenvalues --    0.07786   0.08255   0.08662   0.08753   0.08904
 Alpha virt. eigenvalues --    0.08927   0.09343   0.09652   0.09961   0.10032
 Alpha virt. eigenvalues --    0.10598   0.10916   0.10937   0.11796   0.12211
 Alpha virt. eigenvalues --    0.12280   0.12885   0.13597   0.14039   0.14302
 Alpha virt. eigenvalues --    0.14628   0.15005   0.15242   0.15979   0.16512
 Alpha virt. eigenvalues --    0.16912   0.17077   0.17347   0.17455   0.18165
 Alpha virt. eigenvalues --    0.18587   0.18942   0.19254   0.19927   0.20266
 Alpha virt. eigenvalues --    0.20617   0.20919   0.21511   0.21830   0.22141
 Alpha virt. eigenvalues --    0.22655   0.23045   0.23309   0.23892   0.24224
 Alpha virt. eigenvalues --    0.24654   0.24943   0.24979   0.25462   0.25591
 Alpha virt. eigenvalues --    0.25961   0.26156   0.26819   0.27098   0.27442
 Alpha virt. eigenvalues --    0.27703   0.28397   0.28448   0.29033   0.29164
 Alpha virt. eigenvalues --    0.30282   0.30859   0.31146   0.31281   0.31614
 Alpha virt. eigenvalues --    0.32239   0.32637   0.33156   0.35082   0.35476
 Alpha virt. eigenvalues --    0.36287   0.37060   0.38136   0.38250   0.39623
 Alpha virt. eigenvalues --    0.40212   0.40683   0.41024   0.41223   0.42176
 Alpha virt. eigenvalues --    0.43078   0.43379   0.43672   0.44098   0.44613
 Alpha virt. eigenvalues --    0.44720   0.45137   0.45677   0.46013   0.46725
 Alpha virt. eigenvalues --    0.46877   0.47291   0.47705   0.48105   0.48476
 Alpha virt. eigenvalues --    0.48650   0.48961   0.49156   0.49731   0.50477
 Alpha virt. eigenvalues --    0.50678   0.51085   0.51479   0.51908   0.52112
 Alpha virt. eigenvalues --    0.52246   0.52957   0.53124   0.54069   0.54268
 Alpha virt. eigenvalues --    0.54679   0.54982   0.55236   0.56263   0.56820
 Alpha virt. eigenvalues --    0.56926   0.57229   0.57764   0.57989   0.58741
 Alpha virt. eigenvalues --    0.59221   0.59347   0.60215   0.60823   0.61089
 Alpha virt. eigenvalues --    0.61284   0.61642   0.62712   0.62993   0.63509
 Alpha virt. eigenvalues --    0.63899   0.64139   0.64469   0.64814   0.65208
 Alpha virt. eigenvalues --    0.65638   0.65835   0.66423   0.66607   0.66898
 Alpha virt. eigenvalues --    0.67012   0.67667   0.67887   0.68240   0.68456
 Alpha virt. eigenvalues --    0.68507   0.68909   0.69198   0.69628   0.69757
 Alpha virt. eigenvalues --    0.70079   0.70378   0.70901   0.70965   0.71327
 Alpha virt. eigenvalues --    0.71592   0.72088   0.72392   0.72525   0.72893
 Alpha virt. eigenvalues --    0.73215   0.73556   0.74103   0.74188   0.74390
 Alpha virt. eigenvalues --    0.74645   0.75094   0.75358   0.76409   0.76645
 Alpha virt. eigenvalues --    0.77220   0.77340   0.77970   0.78549   0.79383
 Alpha virt. eigenvalues --    0.79809   0.80072   0.80470   0.81519   0.81859
 Alpha virt. eigenvalues --    0.82891   0.83647   0.84584   0.85076   0.85312
 Alpha virt. eigenvalues --    0.85823   0.86399   0.86666   0.87662   0.87817
 Alpha virt. eigenvalues --    0.88117   0.88433   0.89060   0.89469   0.89842
 Alpha virt. eigenvalues --    0.90088   0.90612   0.91571   0.92781   0.93236
 Alpha virt. eigenvalues --    0.93539   0.94865   0.94949   0.95336   0.95830
 Alpha virt. eigenvalues --    0.96404   0.97269   0.97697   0.98359   0.98813
 Alpha virt. eigenvalues --    0.99188   0.99430   0.99776   0.99825   1.00435
 Alpha virt. eigenvalues --    1.01303   1.02284   1.03186   1.03368   1.04191
 Alpha virt. eigenvalues --    1.04915   1.05430   1.05727   1.05943   1.06615
 Alpha virt. eigenvalues --    1.06904   1.08083   1.08432   1.08490   1.08770
 Alpha virt. eigenvalues --    1.09406   1.09877   1.10175   1.10181   1.10947
 Alpha virt. eigenvalues --    1.11477   1.11805   1.12201   1.12664   1.13068
 Alpha virt. eigenvalues --    1.13547   1.14509   1.14971   1.15254   1.15555
 Alpha virt. eigenvalues --    1.16253   1.17075   1.17132   1.17884   1.18291
 Alpha virt. eigenvalues --    1.18702   1.18888   1.19401   1.19680   1.19846
 Alpha virt. eigenvalues --    1.20885   1.21026   1.21460   1.21927   1.22104
 Alpha virt. eigenvalues --    1.22731   1.22923   1.23682   1.24079   1.24608
 Alpha virt. eigenvalues --    1.24947   1.25289   1.25366   1.26009   1.26635
 Alpha virt. eigenvalues --    1.27201   1.27609   1.28730   1.29190   1.29681
 Alpha virt. eigenvalues --    1.30011   1.30557   1.30759   1.31497   1.31955
 Alpha virt. eigenvalues --    1.32397   1.32834   1.32981   1.33583   1.33800
 Alpha virt. eigenvalues --    1.34242   1.35166   1.35588   1.36139   1.36179
 Alpha virt. eigenvalues --    1.37025   1.37831   1.38280   1.39170   1.39337
 Alpha virt. eigenvalues --    1.40199   1.40317   1.40881   1.41112   1.42110
 Alpha virt. eigenvalues --    1.42465   1.42525   1.43630   1.44068   1.44448
 Alpha virt. eigenvalues --    1.45123   1.45809   1.46063   1.46982   1.48094
 Alpha virt. eigenvalues --    1.48570   1.48919   1.50035   1.50292   1.50956
 Alpha virt. eigenvalues --    1.52227   1.52354   1.52814   1.53206   1.53247
 Alpha virt. eigenvalues --    1.54541   1.54963   1.55347   1.56190   1.57092
 Alpha virt. eigenvalues --    1.57217   1.57691   1.58052   1.58659   1.58913
 Alpha virt. eigenvalues --    1.59410   1.59658   1.60419   1.61713   1.62171
 Alpha virt. eigenvalues --    1.62714   1.63069   1.63797   1.64186   1.64448
 Alpha virt. eigenvalues --    1.64726   1.66061   1.66941   1.67611   1.68374
 Alpha virt. eigenvalues --    1.68461   1.68956   1.69238   1.69486   1.70539
 Alpha virt. eigenvalues --    1.71331   1.71746   1.71991   1.72963   1.73480
 Alpha virt. eigenvalues --    1.73790   1.73949   1.74486   1.74601   1.75134
 Alpha virt. eigenvalues --    1.75535   1.75900   1.76557   1.76738   1.76986
 Alpha virt. eigenvalues --    1.78016   1.78430   1.79167   1.79971   1.80153
 Alpha virt. eigenvalues --    1.80484   1.81750   1.82346   1.83075   1.83356
 Alpha virt. eigenvalues --    1.83917   1.84204   1.84544   1.85173   1.85619
 Alpha virt. eigenvalues --    1.85926   1.86367   1.86476   1.86912   1.87347
 Alpha virt. eigenvalues --    1.87809   1.88521   1.88566   1.90075   1.90095
 Alpha virt. eigenvalues --    1.90288   1.90587   1.91226   1.91694   1.92215
 Alpha virt. eigenvalues --    1.92975   1.93011   1.94053   1.94147   1.94948
 Alpha virt. eigenvalues --    1.95549   1.95933   1.96071   1.96628   1.97145
 Alpha virt. eigenvalues --    1.97234   1.98376   1.98684   1.98875   1.99338
 Alpha virt. eigenvalues --    1.99839   1.99895   2.00256   2.00511   2.01416
 Alpha virt. eigenvalues --    2.01801   2.02949   2.03364   2.03608   2.04155
 Alpha virt. eigenvalues --    2.04262   2.05607   2.06645   2.06831   2.07722
 Alpha virt. eigenvalues --    2.08437   2.09268   2.10171   2.11272   2.12108
 Alpha virt. eigenvalues --    2.12781   2.13527   2.13912   2.14447   2.15110
 Alpha virt. eigenvalues --    2.15920   2.16015   2.17382   2.18402   2.20041
 Alpha virt. eigenvalues --    2.21904   2.22627   2.22961   2.23419   2.23652
 Alpha virt. eigenvalues --    2.24327   2.24469   2.25573   2.26261   2.27618
 Alpha virt. eigenvalues --    2.27968   2.29047   2.30181   2.30820   2.31679
 Alpha virt. eigenvalues --    2.32709   2.33131   2.34868   2.35444   2.36340
 Alpha virt. eigenvalues --    2.37801   2.39346   2.39981   2.40584   2.41751
 Alpha virt. eigenvalues --    2.42491   2.44831   2.45089   2.46426   2.46777
 Alpha virt. eigenvalues --    2.48888   2.50201   2.52007   2.53459   2.53921
 Alpha virt. eigenvalues --    2.54733   2.54906   2.56514   2.56663   2.57758
 Alpha virt. eigenvalues --    2.57832   2.59160   2.59551   2.59948   2.60389
 Alpha virt. eigenvalues --    2.60606   2.61337   2.61678   2.61910   2.62064
 Alpha virt. eigenvalues --    2.62808   2.64229   2.64521   2.65177   2.66131
 Alpha virt. eigenvalues --    2.66756   2.67443   2.67907   2.68753   2.68808
 Alpha virt. eigenvalues --    2.69205   2.69899   2.70174   2.71055   2.71437
 Alpha virt. eigenvalues --    2.71803   2.72187   2.72770   2.73652   2.74302
 Alpha virt. eigenvalues --    2.75147   2.75970   2.76367   2.78908   2.79160
 Alpha virt. eigenvalues --    2.79691   2.79739   2.80113   2.81023   2.81475
 Alpha virt. eigenvalues --    2.81984   2.82351   2.83038   2.83519   2.84129
 Alpha virt. eigenvalues --    2.84667   2.86215   2.86768   2.87289   2.88130
 Alpha virt. eigenvalues --    2.89256   2.89874   2.90586   2.91313   2.91537
 Alpha virt. eigenvalues --    2.92046   2.92371   2.93608   2.94039   2.94254
 Alpha virt. eigenvalues --    2.95238   2.95854   2.96129   2.96967   2.97746
 Alpha virt. eigenvalues --    2.98274   2.98403   2.98666   2.99590   3.00458
 Alpha virt. eigenvalues --    3.00635   3.01094   3.02202   3.02300   3.02410
 Alpha virt. eigenvalues --    3.02541   3.02567   3.02597   3.02708   3.02828
 Alpha virt. eigenvalues --    3.02952   3.03030   3.03227   3.03321   3.03479
 Alpha virt. eigenvalues --    3.03900   3.04018   3.04249   3.04657   3.05237
 Alpha virt. eigenvalues --    3.05675   3.06152   3.07142   3.07217   3.07822
 Alpha virt. eigenvalues --    3.10317   3.11914   3.14608   3.14796   3.15490
 Alpha virt. eigenvalues --    3.15732   3.15862   3.15999   3.16151   3.16737
 Alpha virt. eigenvalues --    3.19987   3.20951   3.22286   3.28390   3.30970
 Alpha virt. eigenvalues --    3.32746   3.33804   3.34795   3.35251   3.36480
 Alpha virt. eigenvalues --    3.36861   3.36927   3.37993   3.38037   3.38598
 Alpha virt. eigenvalues --    3.39265   3.44033   3.48738   3.51076   3.51496
 Alpha virt. eigenvalues --    3.52001   3.52650   3.52779   3.53259   3.54654
 Alpha virt. eigenvalues --    3.58966   3.59873   3.66598   3.67882   3.68561
 Alpha virt. eigenvalues --    3.80988   3.81193   3.82477   3.82720   3.83041
 Alpha virt. eigenvalues --    3.83914
          Condensed to atoms (all electrons):
 Mulliken charges:
               1
     1  C    0.022163
     2  C   -0.017080
     3  C   -0.000375
     4  C    0.014200
     5  C    0.004128
     6  C   -0.012555
     7  C   -0.257587
     8  C    0.080758
     9  C    0.091835
    10  H    0.005425
    11  H    0.011661
    12  H    0.015188
    13  H    0.012700
    14  H    0.004680
    15  O   -0.217893
    16  O   -0.187460
    17  O   -0.434025
    18  O   -0.440019
    19  O   -0.446477
    20  S    0.891737
    21  S    0.863127
    22  S    0.868826
    23  O   -0.443765
    24  O   -0.392694
    25  O   -0.431723
    26  O   -0.380822
    27  O   -0.431211
    28  O   -0.398109
    29  C    0.446637
    30  C    0.449516
    31  C    0.425468
    32  F   -0.114701
    33  F   -0.112782
    34  F   -0.121948
    35  F   -0.102364
    36  F   -0.116635
    37  F   -0.117026
    38  F   -0.124213
    39  F   -0.112718
    40  F   -0.115734
    41  C    0.045650
    42  H    0.032249
    43  C   -0.115876
    44  C   -0.167552
    45  C   -0.167101
    46  C    0.015107
    47  C   -0.011514
    48  C    0.022736
    49  H    0.057951
    50  H    0.051354
    51  H    0.039183
    52  N    0.142645
    53  N    0.099693
    54  N   -0.196998
    55  N   -0.010398
    56  C    0.141712
    57  H    0.077743
    58  Sc   0.294934
    59  C    0.185929
    60  H    0.055742
    61  H    0.015563
    62  C    0.133948
    63  H    0.108536
    64  H    0.052627
    65  H    0.075075
    66  C    0.116674
    67  H    0.060629
    68  H    0.089739
    69  H    0.075889
 Sum of Mulliken charges =  -0.00000
 Mulliken charges with hydrogens summed into heavy atoms:
               1
     1  C    0.022163
     2  C   -0.011655
     3  C    0.011286
     4  C    0.029388
     5  C    0.016828
     6  C   -0.007875
     7  C   -0.257587
     8  C    0.080758
     9  C    0.091835
    15  O   -0.217893
    16  O   -0.187460
    17  O   -0.434025
    18  O   -0.440019
    19  O   -0.446477
    20  S    0.891737
    21  S    0.863127
    22  S    0.868826
    23  O   -0.443765
    24  O   -0.392694
    25  O   -0.431723
    26  O   -0.380822
    27  O   -0.431211
    28  O   -0.398109
    29  C    0.446637
    30  C    0.449516
    31  C    0.425468
    32  F   -0.114701
    33  F   -0.112782
    34  F   -0.121948
    35  F   -0.102364
    36  F   -0.116635
    37  F   -0.117026
    38  F   -0.124213
    39  F   -0.112718
    40  F   -0.115734
    41  C    0.077899
    43  C   -0.115876
    44  C   -0.167552
    45  C   -0.167101
    46  C    0.073058
    47  C    0.039840
    48  C    0.061919
    52  N    0.142645
    53  N    0.099693
    54  N   -0.196998
    55  N   -0.010398
    56  C    0.219454
    58  Sc   0.294934
    59  C    0.257234
    62  C    0.370185
    66  C    0.342932
 Electronic spatial extent (au):  <R**2>=          32768.2294
 Charge=             -0.0000 electrons
 Dipole moment (field-independent basis, Debye):
    X=             10.1982    Y=              1.5773    Z=             -0.6468  Tot=             10.3397
 Quadrupole moment (field-independent basis, Debye-Ang):
   XX=           -349.1078   YY=           -331.6710   ZZ=           -323.6316
   XY=            -30.5090   XZ=             -5.8496   YZ=             -1.2937
 Traceless Quadrupole moment (field-independent basis, Debye-Ang):
   XX=            -14.3044   YY=              3.1325   ZZ=             11.1719
   XY=            -30.5090   XZ=             -5.8496   YZ=             -1.2937
 Octapole moment (field-independent basis, Debye-Ang**2):
  XXX=           -462.4075  YYY=             53.3443  ZZZ=            -94.9997  XYY=            -73.8354
  XXY=           -265.6004  XXZ=            -72.5232  XZZ=            -29.7845  YZZ=            -43.6527
  YYZ=             -8.4463  XYZ=            -42.9165
 Hexadecapole moment (field-independent basis, Debye-Ang**3):
 XXXX=         -29083.1705 YYYY=          -8612.5426 ZZZZ=          -4605.3366 XXXY=          -2059.9705
 XXXZ=           -267.3291 YYYX=           -314.8602 YYYZ=            -35.6423 ZZZX=           -231.6155
 ZZZY=             52.0076 XXYY=          -6309.5263 XXZZ=          -5674.5241 YYZZ=          -2151.3563
 XXYZ=            -17.5022 YYXZ=            -58.1106 ZZXY=           -143.0544
 N-N= 9.910529073720D+03 E-N=-3.109030916250D+04  KE= 4.751176241462D+03
 No NMR shielding tensors so no spin-rotation constants.
 Leave Link  601 at Mon Mar  3 22:44:53 2025, MaxMem= 82678120448 cpu:             207.4 elap:              21.1
 (Enter /sysapps/ubuntu-applications/gaussian-new/avx/g16/l9999.exe)
 1\1\GINC-ACIDSGN007\FOpt\RMN15\Gen\C23H18F9N4O11S3Sc1\SELHAJJ1\03-Mar-
 2025\0\\#P MN15/gen scf=(maxcyc=500) opt scrf=(smd,solvent=DiChloroEth
 ane)\\Opt\\0,1\C,5.4951559521,-0.8162478481,0.1319411548\C,5.688731390
 7,-1.6589687613,1.2369431208\C,6.7996384364,-2.5033922085,1.2960233219
 \C,7.7295014906,-2.5191801791,0.2545013153\C,7.5465306422,-1.682753642
 8,-0.8491453865\C,6.4382719364,-0.8375115534,-0.9067138491\C,1.7409231
 293,0.4251651894,0.5282588432\C,1.1093075756,0.6050654666,-0.853761991
 7\C,0.7831921358,-0.0689198435,1.6123585209\H,4.9791651129,-1.66612777
 71,2.0679071658\H,6.9361504623,-3.1533391465,2.1630609611\H,8.59523113
 18,-3.1834553874,0.3023952106\H,8.2678359956,-1.6882446415,-1.66922460
 54\H,6.2962269777,-0.1803205821,-1.7697098543\O,-0.4355888057,0.113561
 9768,1.5300209126\O,-0.0981952794,0.4767353076,-1.0565396163\O,-3.4787
 786044,0.1910194528,1.3885591385\O,-3.0826966653,0.7218832823,-1.47977
 94187\O,-0.1801974973,-2.0294059106,-0.0939689364\S,-0.8836878849,-2.6
 934254055,-1.2260626325\S,-3.7303667397,-1.2214838274,1.8240827047\S,-
 2.9383981145,2.1370794725,-0.987787825\O,-2.0090214525,-1.7641679886,-
 1.5831475572\O,-1.1849181263,-4.0967752636,-1.1222919765\O,-2.61644735
 82,-1.9828927239,1.1773034941\O,-4.0253127562,-1.4690996841,3.20736720
 24\O,-1.9737246925,2.0291947718,0.1430446581\O,-2.7133553962,3.1574917
 603,-1.9775384284\C,-4.5938929779,2.5321899119,-0.2082140927\C,-5.2069
 387802,-1.7001006433,0.8339472301\C,0.2910294894,-2.5352243364,-2.6544
 548237\F,-4.4125750312,2.9068939561,1.0402942724\F,-5.3810228743,1.476
 1492587,-0.2538602012\F,-5.1447602344,3.518080218,-0.8892564829\F,-4.9
 313771513,-1.4794953913,-0.4403651767\F,-6.2388012555,-0.9688799527,1.
 2025449243\F,-5.4697507423,-2.9771744221,1.0201981496\F,1.5296081653,-
 2.6484019098,-2.1976977624\F,0.1504651852,-1.359924542,-3.2373075028\F
 ,0.0517817168,-3.4933541961,-3.5244766862\C,4.3267592538,0.1442721916,
 0.0255698179\H,4.2934564743,0.4921891196,-1.0162569514\C,4.5456561018,
 1.4649507282,0.8342596698\C,5.8028208407,2.1080140493,0.4022536191\C,4
 .6528288854,1.1707068317,2.2861093916\C,1.0715131915,2.903155243,0.807
 1814047\C,2.6292480296,4.0969025069,-0.610679656\C,1.3054825417,3.9301
 975397,-0.0257655744\H,0.0917423086,2.746161115,1.2633355238\H,2.83443
 54523,4.8908262101,-1.3321513201\H,0.5202460372,4.6487544275,-0.265966
 2239\N,6.8290106365,2.5304345605,0.0761714278\N,4.6766693087,0.9072206
 288,3.4130851622\N,3.4176215146,2.3577875921,0.6187175581\N,3.61566064
 51,3.3300981899,-0.2988484179\C,2.1353254566,1.8867120424,1.0998252008
 \H,2.2199956549,1.7400117553,2.1923612792\Sc,-1.8156163828,-0.25901362
 73,-0.0191872215\C,2.9939286305,-0.4906055529,0.4430242864\H,2.7730685
 053,-1.3319875944,-0.2319217118\H,3.1468880426,-0.9349095189,1.4333853
 258\C,1.3088721557,-0.7038734033,2.8504161341\H,1.4950724762,-1.765549
 5826,2.6084552862\H,2.2567197323,-0.2721773428,3.198573933\H,0.5387835
 582,-0.6556377735,3.6285954845\C,1.9732022519,0.9168858898,-2.02477426
 95\H,2.7276559584,1.6820559729,-1.8068866196\H,2.507589503,-0.00840161
 1,-2.3031122168\H,1.3390933494,1.2259170366,-2.8634439868\\Version=ES6
 4L-G16RevA.03\State=1-A\HF=-4781.7178054\RMSD=7.780e-09\RMSF=7.554e-06
 \Dipole=4.0087795,0.6764318,-0.1432048\Quadrupole=-10.2138788,2.357410
 5,7.8564683,-22.0209966,-7.3317514,-1.9030239\PG=C01 [X(C23H18F9N4O11S
 3Sc1)]\\@



 IN THIS SHORT LIFE

 THAT ONLY LASTS AN HOUR

 HOW MUCH, HOW LITTLE, IS WITHIN OUR POWER....


 EMILY DICKINSON BOLTS OF MELODY NO. 521
 Job cpu time:       6 days 15 hours 57 minutes 28.6 seconds.
 Elapsed time:       0 days 16 hours 25 minutes 45.5 seconds.
 File lengths (MBytes):  RWF=   1148 Int=      0 D2E=      0 Chk=     61 Scr=      1
 Normal termination of Gaussian 16 at Mon Mar  3 22:44:53 2025.
