 Entering Gaussian System, Link 0=/sysapps/ubuntu-applications/gaussian-new/avx/g16//g16
 Input=i3-minor.in
 Output=i3-minor.log
 Initial command:
 /sysapps/ubuntu-applications/gaussian-new/avx/g16/l1.exe "/data/temp-scratch/selhajj1/7501754/Gau-1227239.inp" -scrdir="/data/temp-scratch/selhajj1/7501754/"
 Entering Link 1 = /sysapps/ubuntu-applications/gaussian-new/avx/g16/l1.exe PID=   1227241.
  
 Copyright (c) 1988,1990,1992,1993,1995,1998,2003,2009,2016,
            Gaussian, Inc.  All Rights Reserved.
  
 This is part of the Gaussian(R) 16 program.  It is based on
 the Gaussian(R) 09 system (copyright 2009, Gaussian, Inc.),
 the Gaussian(R) 03 system (copyright 2003, Gaussian, Inc.),
 the Gaussian(R) 98 system (copyright 1998, Gaussian, Inc.),
 the Gaussian(R) 94 system (copyright 1995, Gaussian, Inc.),
 the Gaussian 92(TM) system (copyright 1992, Gaussian, Inc.),
 the Gaussian 90(TM) system (copyright 1990, Gaussian, Inc.),
 the Gaussian 88(TM) system (copyright 1988, Gaussian, Inc.),
 the Gaussian 86(TM) system (copyright 1986, Carnegie Mellon
 University), and the Gaussian 82(TM) system (copyright 1983,
 Carnegie Mellon University). Gaussian is a federally registered
 trademark of Gaussian, Inc.
  
 This software contains proprietary and confidential information,
 including trade secrets, belonging to Gaussian, Inc.
  
 This software is provided under written license and may be
 used, copied, transmitted, or stored only in accord with that
 written license.
  
 The following legend is applicable only to US Government
 contracts under FAR:
  
                    RESTRICTED RIGHTS LEGEND
  
 Use, reproduction and disclosure by the US Government is
 subject to restrictions as set forth in subparagraphs (a)
 and (c) of the Commercial Computer Software - Restricted
 Rights clause in FAR 52.227-19.
  
 Gaussian, Inc.
 340 Quinnipiac St., Bldg. 40, Wallingford CT 06492
  
  
 ---------------------------------------------------------------
 Warning -- This program may not be used in any manner that
 competes with the business of Gaussian, Inc. or will provide
 assistance to any competitor of Gaussian, Inc.  The licensee
 of this program is prohibited from giving any competitor of
 Gaussian, Inc. access to this program.  By using this program,
 the user acknowledges that Gaussian, Inc. is engaged in the
 business of creating and licensing software in the field of
 computational chemistry and represents and warrants to the
 licensee that it is not a competitor of Gaussian, Inc. and that
 it will not use this program in any manner prohibited above.
 ---------------------------------------------------------------
  

 Cite this work as:
 Gaussian 16, Revision A.03,
 M. J. Frisch, G. W. Trucks, H. B. Schlegel, G. E. Scuseria, 
 M. A. Robb, J. R. Cheeseman, G. Scalmani, V. Barone, 
 G. A. Petersson, H. Nakatsuji, X. Li, M. Caricato, A. V. Marenich, 
 J. Bloino, B. G. Janesko, R. Gomperts, B. Mennucci, H. P. Hratchian, 
 J. V. Ortiz, A. F. Izmaylov, J. L. Sonnenberg, D. Williams-Young, 
 F. Ding, F. Lipparini, F. Egidi, J. Goings, B. Peng, A. Petrone, 
 T. Henderson, D. Ranasinghe, V. G. Zakrzewski, J. Gao, N. Rega, 
 G. Zheng, W. Liang, M. Hada, M. Ehara, K. Toyota, R. Fukuda, 
 J. Hasegawa, M. Ishida, T. Nakajima, Y. Honda, O. Kitao, H. Nakai, 
 T. Vreven, K. Throssell, J. A. Montgomery, Jr., J. E. Peralta, 
 F. Ogliaro, M. J. Bearpark, J. J. Heyd, E. N. Brothers, K. N. Kudin, 
 V. N. Staroverov, T. A. Keith, R. Kobayashi, J. Normand, 
 K. Raghavachari, A. P. Rendell, J. C. Burant, S. S. Iyengar, 
 J. Tomasi, M. Cossi, J. M. Millam, M. Klene, C. Adamo, R. Cammi, 
 J. W. Ochterski, R. L. Martin, K. Morokuma, O. Farkas, 
 J. B. Foresman, and D. J. Fox, Gaussian, Inc., Wallingford CT, 2016.
 
 ******************************************
 Gaussian 16:  ES64L-G16RevA.03 25-Dec-2016
                30-Jan-2025 
 ******************************************
 %chk=i3-minor.chk
 %mem=616Gb
 %nprocshared=24
 Will use up to   24 processors via shared memory.
 -------------------------------------------------------------------
 #P MN15/gen scf=(maxcyc=500) freq scrf=(smd,solvent=DiChloroEthane)
 -------------------------------------------------------------------
 1/10=4,30=1,38=1/1,3;
 2/12=2,17=6,18=5,40=1/2;
 3/5=7,11=2,25=1,30=1,70=32201,71=2,72=10,74=-73,140=1/1,2,3;
 4//1;
 5/5=2,7=500,38=5,53=10,98=1/2;
 8/6=4,10=90,11=11/1;
 11/6=1,8=1,9=11,15=111,16=1/1,2,10;
 10/6=1/2;
 6/7=2,8=2,9=2,10=2,28=1/1;
 7/8=1,10=1,25=1/1,2,3,16;
 1/10=4,30=1/3;
 99//99;
 Leave Link    1 at Thu Jan 30 06:28:07 2025, MaxMem= 82678120448 cpu:              18.5 elap:               0.8
 (Enter /sysapps/ubuntu-applications/gaussian-new/avx/g16/l101.exe)
 ----
 freq
 ----
 Symbolic Z-matrix:
 Charge =  0 Multiplicity = 1
 C                     1.84132  -0.95475  -0.71959 
 C                     1.43735  -0.27118   0.58875 
 C                     0.56068  -1.48522  -1.35561 
 O                    -0.37194  -0.72257  -1.63489 
 O                     0.46437   0.48905   0.6486 
 O                     2.19068  -0.50305   1.60656 
 O                     0.52449  -2.74681  -1.60932 
 C                     1.90427   0.21412   2.82386 
 C                    -0.71681  -3.29943  -2.09932 
 H                     2.72179  -0.01995   3.51166 
 H                     0.94439  -0.1347    3.22706 
 H                     1.86225   1.29054   2.60745 
 H                    -0.51621  -4.35572  -2.29804 
 H                    -1.02245  -2.77781  -3.01503 
 H                    -1.47872  -3.17943  -1.31714 
 O                    -3.05771  -1.21293  -0.62724 
 O                    -2.14298  -0.13207   1.82143 
 O                    -0.65579   2.15976  -1.23991 
 S                    -1.55336   3.10563  -0.51289 
 S                    -3.7496   -0.47074  -1.7319 
 S                    -1.60552  -1.51851   2.04923 
 O                    -2.27866   2.23209   0.47664 
 O                    -2.32815   4.05004  -1.27121 
 O                    -2.917     0.76206  -1.89162 
 O                    -4.13021  -1.20362  -2.90715 
 O                    -0.84075  -1.85923   0.81832 
 O                    -0.96453  -1.75324   3.31998 
 C                    -3.11574  -2.62616   2.01977 
 C                    -5.28762   0.12737  -0.91449 
 C                    -0.4283    4.0994    0.55275 
 F                    -2.99503  -3.50488   1.0467 
 F                    -4.20291  -1.90415   1.84881 
 F                    -3.1831   -3.25593   3.1757 
 F                    -4.94605   0.76271   0.19239 
 F                    -6.04866  -0.90703  -0.62023 
 F                    -5.92847   0.94567  -1.72264 
 F                     0.1959    3.30403   1.39913 
 F                    -1.13815   4.98888   1.21708 
 F                     0.44906   4.71527  -0.2196 
 C                     3.751     0.64433  -1.35057 
 C                     4.68351  -0.59358  -1.34184 
 C                     6.09033  -0.20618  -1.08703 
 C                     4.68048  -1.22113  -2.69897 
 C                     2.55406  -3.0538    0.53494 
 C                     4.90322  -3.53482   0.57338 
 C                     3.54758  -3.78462   1.05521 
 H                     1.51214  -3.15711   0.85159 
 H                     5.71976  -4.224     0.80567 
 H                     3.37778  -4.53855   1.82523 
 N                     7.18618   0.14348  -0.96305 
 N                     4.62647  -1.7503   -3.72747 
 N                     4.22848  -1.55802  -0.34913 
 N                     5.2174   -2.47849  -0.08757 
 C                     2.87952  -2.08223  -0.57553 
 H                     2.86351  -2.6279   -1.54602 
 C                     2.33822   0.15696  -1.68403 
 H                     1.62096   0.99101  -1.66808 
 H                     2.32855  -0.2564   -2.70517 
 Sc                   -1.515     0.32337  -0.19287 
 H                     4.07137   1.26457  -2.20279 
 C                     3.85025   1.51851  -0.10262 
 C                     3.16716   2.74513  -0.1255 
 C                     4.61349   1.20267   1.03185 
 C                     3.27462   3.64554   0.93654 
 H                     2.55913   3.01031  -0.99649 
 C                     4.72281   2.10517   2.09227 
 H                     5.11674   0.23917   1.11867 
 C                     4.06092   3.33251   2.04706 
 H                     2.74668   4.59945   0.89116 
 H                     5.3293    1.83815   2.96064 
 H                     4.15237   4.04021   2.87392 
 
 ITRead=  0  0  0  0  0  0  0  0  0  0  0  0  0  0  0  0  0  0  0  0
 ITRead=  0  0  0  0  0  0  0  0  0  0  0  0  0  0  0  0  0  0  0  0
 ITRead=  0  0  0  0  0  0  0  0  0  0  0  0  0  0  0  0  0  0  0  0
 ITRead=  0  0  0  0  0  0  0  0  0  0  0
 MicOpt= -1 -1 -1 -1 -1 -1 -1 -1 -1 -1 -1 -1 -1 -1 -1 -1 -1 -1 -1 -1
 MicOpt= -1 -1 -1 -1 -1 -1 -1 -1 -1 -1 -1 -1 -1 -1 -1 -1 -1 -1 -1 -1
 MicOpt= -1 -1 -1 -1 -1 -1 -1 -1 -1 -1 -1 -1 -1 -1 -1 -1 -1 -1 -1 -1
 MicOpt= -1 -1 -1 -1 -1 -1 -1 -1 -1 -1 -1
 NAtoms=     71 NQM=       71 NQMF=       0 NMMI=      0 NMMIF=      0
                NMic=       0 NMicF=      0.
                    Isotopes and Nuclear Properties:
 (Nuclear quadrupole moments (NQMom) in fm**2, nuclear magnetic moments (NMagM)
  in nuclear magnetons)

  Atom         1           2           3           4           5           6           7           8           9          10
 IAtWgt=          12          12          12          16          16          16          16          12          12           1
 AtmWgt=  12.0000000  12.0000000  12.0000000  15.9949146  15.9949146  15.9949146  15.9949146  12.0000000  12.0000000   1.0078250
 NucSpn=           0           0           0           0           0           0           0           0           0           1
 AtZEff=  -0.0000000  -0.0000000  -0.0000000  -0.0000000  -0.0000000  -0.0000000  -0.0000000  -0.0000000  -0.0000000  -0.0000000
 NQMom=    0.0000000   0.0000000   0.0000000   0.0000000   0.0000000   0.0000000   0.0000000   0.0000000   0.0000000   0.0000000
 NMagM=    0.0000000   0.0000000   0.0000000   0.0000000   0.0000000   0.0000000   0.0000000   0.0000000   0.0000000   2.7928460
 AtZNuc=   6.0000000   6.0000000   6.0000000   8.0000000   8.0000000   8.0000000   8.0000000   6.0000000   6.0000000   1.0000000

  Atom        11          12          13          14          15          16          17          18          19          20
 IAtWgt=           1           1           1           1           1          16          16          16          32          32
 AtmWgt=   1.0078250   1.0078250   1.0078250   1.0078250   1.0078250  15.9949146  15.9949146  15.9949146  31.9720718  31.9720718
 NucSpn=           1           1           1           1           1           0           0           0           0           0
 AtZEff=  -0.0000000  -0.0000000  -0.0000000  -0.0000000  -0.0000000  -0.0000000  -0.0000000  -0.0000000  -0.0000000  -0.0000000
 NQMom=    0.0000000   0.0000000   0.0000000   0.0000000   0.0000000   0.0000000   0.0000000   0.0000000   0.0000000   0.0000000
 NMagM=    2.7928460   2.7928460   2.7928460   2.7928460   2.7928460   0.0000000   0.0000000   0.0000000   0.0000000   0.0000000
 AtZNuc=   1.0000000   1.0000000   1.0000000   1.0000000   1.0000000   8.0000000   8.0000000   8.0000000  16.0000000  16.0000000

  Atom        21          22          23          24          25          26          27          28          29          30
 IAtWgt=          32          16          16          16          16          16          16          12          12          12
 AtmWgt=  31.9720718  15.9949146  15.9949146  15.9949146  15.9949146  15.9949146  15.9949146  12.0000000  12.0000000  12.0000000
 NucSpn=           0           0           0           0           0           0           0           0           0           0
 AtZEff=  -0.0000000  -0.0000000  -0.0000000  -0.0000000  -0.0000000  -0.0000000  -0.0000000  -0.0000000  -0.0000000  -0.0000000
 NQMom=    0.0000000   0.0000000   0.0000000   0.0000000   0.0000000   0.0000000   0.0000000   0.0000000   0.0000000   0.0000000
 NMagM=    0.0000000   0.0000000   0.0000000   0.0000000   0.0000000   0.0000000   0.0000000   0.0000000   0.0000000   0.0000000
 AtZNuc=  16.0000000   8.0000000   8.0000000   8.0000000   8.0000000   8.0000000   8.0000000   6.0000000   6.0000000   6.0000000

  Atom        31          32          33          34          35          36          37          38          39          40
 IAtWgt=          19          19          19          19          19          19          19          19          19          12
 AtmWgt=  18.9984032  18.9984032  18.9984032  18.9984032  18.9984032  18.9984032  18.9984032  18.9984032  18.9984032  12.0000000
 NucSpn=           1           1           1           1           1           1           1           1           1           0
 AtZEff=  -0.0000000  -0.0000000  -0.0000000  -0.0000000  -0.0000000  -0.0000000  -0.0000000  -0.0000000  -0.0000000  -0.0000000
 NQMom=    0.0000000   0.0000000   0.0000000   0.0000000   0.0000000   0.0000000   0.0000000   0.0000000   0.0000000   0.0000000
 NMagM=    2.6288670   2.6288670   2.6288670   2.6288670   2.6288670   2.6288670   2.6288670   2.6288670   2.6288670   0.0000000
 AtZNuc=   9.0000000   9.0000000   9.0000000   9.0000000   9.0000000   9.0000000   9.0000000   9.0000000   9.0000000   6.0000000

  Atom        41          42          43          44          45          46          47          48          49          50
 IAtWgt=          12          12          12          12          12          12           1           1           1          14
 AtmWgt=  12.0000000  12.0000000  12.0000000  12.0000000  12.0000000  12.0000000   1.0078250   1.0078250   1.0078250  14.0030740
 NucSpn=           0           0           0           0           0           0           1           1           1           2
 AtZEff=  -0.0000000  -0.0000000  -0.0000000  -0.0000000  -0.0000000  -0.0000000  -0.0000000  -0.0000000  -0.0000000  -0.0000000
 NQMom=    0.0000000   0.0000000   0.0000000   0.0000000   0.0000000   0.0000000   0.0000000   0.0000000   0.0000000   2.0440000
 NMagM=    0.0000000   0.0000000   0.0000000   0.0000000   0.0000000   0.0000000   2.7928460   2.7928460   2.7928460   0.4037610
 AtZNuc=   6.0000000   6.0000000   6.0000000   6.0000000   6.0000000   6.0000000   1.0000000   1.0000000   1.0000000   7.0000000

  Atom        51          52          53          54          55          56          57          58          59          60
 IAtWgt=          14          14          14          12           1          12           1           1          45           1
 AtmWgt=  14.0030740  14.0030740  14.0030740  12.0000000   1.0078250  12.0000000   1.0078250   1.0078250  44.9559136   1.0078250
 NucSpn=           2           2           2           0           1           0           1           1           7           1
 AtZEff=  -0.0000000  -0.0000000  -0.0000000  -0.0000000  -0.0000000  -0.0000000  -0.0000000  -0.0000000  -0.0000000  -0.0000000
 NQMom=    2.0440000   2.0440000   2.0440000   0.0000000   0.0000000   0.0000000   0.0000000   0.0000000 -22.0000000   0.0000000
 NMagM=    0.4037610   0.4037610   0.4037610   0.0000000   2.7928460   0.0000000   2.7928460   2.7928460   4.7564830   2.7928460
 AtZNuc=   7.0000000   7.0000000   7.0000000   6.0000000   1.0000000   6.0000000   1.0000000   1.0000000  21.0000000   1.0000000

  Atom        61          62          63          64          65          66          67          68          69          70
 IAtWgt=          12          12          12          12           1          12           1          12           1           1
 AtmWgt=  12.0000000  12.0000000  12.0000000  12.0000000   1.0078250  12.0000000   1.0078250  12.0000000   1.0078250   1.0078250
 NucSpn=           0           0           0           0           1           0           1           0           1           1
 AtZEff=  -0.0000000  -0.0000000  -0.0000000  -0.0000000  -0.0000000  -0.0000000  -0.0000000  -0.0000000  -0.0000000  -0.0000000
 NQMom=    0.0000000   0.0000000   0.0000000   0.0000000   0.0000000   0.0000000   0.0000000   0.0000000   0.0000000   0.0000000
 NMagM=    0.0000000   0.0000000   0.0000000   0.0000000   2.7928460   0.0000000   2.7928460   0.0000000   2.7928460   2.7928460
 AtZNuc=   6.0000000   6.0000000   6.0000000   6.0000000   1.0000000   6.0000000   1.0000000   6.0000000   1.0000000   1.0000000

  Atom        71
 IAtWgt=           1
 AtmWgt=   1.0078250
 NucSpn=           1
 AtZEff=  -0.0000000
 NQMom=    0.0000000
 NMagM=    2.7928460
 AtZNuc=   1.0000000
 Leave Link  101 at Thu Jan 30 06:28:08 2025, MaxMem= 82678120448 cpu:               4.0 elap:               0.2
 (Enter /sysapps/ubuntu-applications/gaussian-new/avx/g16/l103.exe)

 GradGradGradGradGradGradGradGradGradGradGradGradGradGradGradGradGradGrad
 Berny optimization.
 Initialization pass.
 Trust Radius=3.00D-01 FncErr=1.00D-07 GrdErr=1.00D-07 EigMax=2.50D+02 EigMin=1.00D-04
 Number of steps in this run=      2 maximum allowed number of steps=      2.
 GradGradGradGradGradGradGradGradGradGradGradGradGradGradGradGradGradGrad

 Leave Link  103 at Thu Jan 30 06:28:08 2025, MaxMem= 82678120448 cpu:               1.4 elap:               0.1
 (Enter /sysapps/ubuntu-applications/gaussian-new/avx/g16/l202.exe)
 Stoichiometry    C23H18F9N4O13S3Sc
 Framework group  C1[X(C23H18F9N4O13S3Sc)]
 Deg. of freedom   207
 Full point group                 C1      NOp   1
 Largest Abelian subgroup         C1      NOp   1
 Largest concise Abelian subgroup C1      NOp   1
                         Standard orientation:                         
 ---------------------------------------------------------------------
 Center     Atomic      Atomic             Coordinates (Angstroms)
 Number     Number       Type             X           Y           Z
 ---------------------------------------------------------------------
      1          6           0        1.841319   -0.954746   -0.719594
      2          6           0        1.437349   -0.271175    0.588752
      3          6           0        0.560681   -1.485217   -1.355608
      4          8           0       -0.371942   -0.722574   -1.634889
      5          8           0        0.464368    0.489047    0.648596
      6          8           0        2.190677   -0.503052    1.606559
      7          8           0        0.524492   -2.746807   -1.609315
      8          6           0        1.904268    0.214121    2.823856
      9          6           0       -0.716810   -3.299427   -2.099316
     10          1           0        2.721785   -0.019952    3.511660
     11          1           0        0.944391   -0.134699    3.227060
     12          1           0        1.862246    1.290536    2.607451
     13          1           0       -0.516212   -4.355723   -2.298039
     14          1           0       -1.022449   -2.777805   -3.015033
     15          1           0       -1.478717   -3.179430   -1.317142
     16          8           0       -3.057714   -1.212926   -0.627240
     17          8           0       -2.142983   -0.132068    1.821426
     18          8           0       -0.655794    2.159758   -1.239907
     19         16           0       -1.553359    3.105633   -0.512893
     20         16           0       -3.749604   -0.470744   -1.731901
     21         16           0       -1.605516   -1.518513    2.049229
     22          8           0       -2.278657    2.232090    0.476636
     23          8           0       -2.328151    4.050035   -1.271212
     24          8           0       -2.917002    0.762056   -1.891619
     25          8           0       -4.130211   -1.203617   -2.907151
     26          8           0       -0.840750   -1.859231    0.818323
     27          8           0       -0.964531   -1.753240    3.319982
     28          6           0       -3.115743   -2.626155    2.019768
     29          6           0       -5.287620    0.127374   -0.914488
     30          6           0       -0.428296    4.099399    0.552748
     31          9           0       -2.995027   -3.504878    1.046704
     32          9           0       -4.202908   -1.904152    1.848805
     33          9           0       -3.183095   -3.255930    3.175701
     34          9           0       -4.946046    0.762705    0.192389
     35          9           0       -6.048659   -0.907028   -0.620231
     36          9           0       -5.928471    0.945667   -1.722636
     37          9           0        0.195897    3.304025    1.399134
     38          9           0       -1.138152    4.988881    1.217082
     39          9           0        0.449058    4.715265   -0.219604
     40          6           0        3.750995    0.644327   -1.350567
     41          6           0        4.683513   -0.593583   -1.341835
     42          6           0        6.090327   -0.206178   -1.087025
     43          6           0        4.680475   -1.221129   -2.698965
     44          6           0        2.554064   -3.053799    0.534943
     45          6           0        4.903217   -3.534820    0.573378
     46          6           0        3.547581   -3.784616    1.055207
     47          1           0        1.512139   -3.157114    0.851593
     48          1           0        5.719760   -4.224001    0.805671
     49          1           0        3.377778   -4.538550    1.825233
     50          7           0        7.186180    0.143482   -0.963047
     51          7           0        4.626473   -1.750300   -3.727470
     52          7           0        4.228482   -1.558017   -0.349126
     53          7           0        5.217399   -2.478488   -0.087565
     54          6           0        2.879516   -2.082227   -0.575530
     55          1           0        2.863509   -2.627898   -1.546017
     56          6           0        2.338225    0.156958   -1.684034
     57          1           0        1.620959    0.991013   -1.668078
     58          1           0        2.328554   -0.256403   -2.705170
     59         21           0       -1.514998    0.323373   -0.192865
     60          1           0        4.071368    1.264565   -2.202787
     61          6           0        3.850251    1.518507   -0.102615
     62          6           0        3.167160    2.745132   -0.125495
     63          6           0        4.613485    1.202674    1.031853
     64          6           0        3.274621    3.645539    0.936538
     65          1           0        2.559131    3.010312   -0.996489
     66          6           0        4.722806    2.105168    2.092271
     67          1           0        5.116738    0.239166    1.118666
     68          6           0        4.060916    3.332512    2.047056
     69          1           0        2.746676    4.599447    0.891160
     70          1           0        5.329301    1.838152    2.960636
     71          1           0        4.152368    4.040210    2.873916
 ---------------------------------------------------------------------
 Rotational constants (GHZ):           0.0758550           0.0431682           0.0358891
 Leave Link  202 at Thu Jan 30 06:28:08 2025, MaxMem= 82678120448 cpu:               2.9 elap:               0.2
 (Enter /sysapps/ubuntu-applications/gaussian-new/avx/g16/l301.exe)
 General basis read from cards:  (5D, 7F)
 Centers:      10     11     12     13     14     15     47     48     49     55
 Centers:      57     58     60     65     67     69     70     71
 S 3 1.00
     Exponent=  1.3010701000D+01 Coefficients=  1.9682158000D-02
     Exponent=  1.9622572000D+00 Coefficients=  1.3796524000D-01
     Exponent=  4.4453796000D-01 Coefficients=  4.7831935000D-01
 S 1 1.00
     Exponent=  1.2194962000D-01 Coefficients=  1.0000000000D+00
 P 1 1.00
     Exponent=  8.0000000000D-01 Coefficients=  1.0000000000D+00
 ****
 Centers:       1      2      3      8      9     28     29     30     40     41
 Centers:      42     43     44     45     46     54     56     61     62     63
 Centers:      64     66     68
 S 5 1.00
     Exponent=  1.2384016938D+03 Coefficients=  5.4568832082D-03
     Exponent=  1.8629004992D+02 Coefficients=  4.0638409211D-02
     Exponent=  4.2251176346D+01 Coefficients=  1.8025593888D-01
     Exponent=  1.1676557932D+01 Coefficients=  4.6315121755D-01
     Exponent=  3.5930506482D+00 Coefficients=  4.4087173314D-01
 S 1 1.00
     Exponent=  4.0245147363D-01 Coefficients=  1.0000000000D+00
 S 1 1.00
     Exponent=  1.3090182668D-01 Coefficients=  1.0000000000D+00
 P 3 1.00
     Exponent=  9.4680970621D+00 Coefficients=  3.8387871728D-02
     Exponent=  2.0103545142D+00 Coefficients=  2.1117025112D-01
     Exponent=  5.4771004707D-01 Coefficients=  5.1328172114D-01
 P 1 1.00
     Exponent=  1.5268613795D-01 Coefficients=  1.0000000000D+00
 D 1 1.00
     Exponent=  8.0000000000D-01 Coefficients=  1.0000000000D+00
 ****
 Centers:      50     51     52     53
 S 5 1.00
     Exponent=  1.7128415853D+03 Coefficients= -5.3934125305D-03
     Exponent=  2.5764812677D+02 Coefficients= -4.0221581118D-02
     Exponent=  5.8458245853D+01 Coefficients= -1.7931144990D-01
     Exponent=  1.6198367905D+01 Coefficients= -4.6376317823D-01
     Exponent=  5.0052600809D+00 Coefficients= -4.4171422662D-01
 S 1 1.00
     Exponent=  5.8731856571D-01 Coefficients=  1.0000000000D+00
 S 1 1.00
     Exponent=  1.8764592253D-01 Coefficients=  1.0000000000D+00
 P 3 1.00
     Exponent=  1.3571470233D+01 Coefficients= -4.0072398852D-02
     Exponent=  2.9257372874D+00 Coefficients= -2.1807045028D-01
     Exponent=  7.9927750754D-01 Coefficients= -5.1294466049D-01
 P 1 1.00
     Exponent=  2.1954348034D-01 Coefficients=  1.0000000000D+00
 D 1 1.00
     Exponent=  1.0000000000D+00 Coefficients=  1.0000000000D+00
 ****
 Centers:       4      5      6      7     16     17     18     22     23     24
 Centers:      25     26     27
 S 5 1.00
     Exponent=  2.2661767785D+03 Coefficients= -5.3431809926D-03
     Exponent=  3.4087010191D+02 Coefficients= -3.9890039230D-02
     Exponent=  7.7363135167D+01 Coefficients= -1.7853911985D-01
     Exponent=  2.1479644940D+01 Coefficients= -4.6427684959D-01
     Exponent=  6.6589433124D+00 Coefficients= -4.4309745172D-01
 S 1 1.00
     Exponent=  8.0975975668D-01 Coefficients=  1.0000000000D+00
 S 1 1.00
     Exponent=  2.5530772234D-01 Coefficients=  1.0000000000D+00
 P 3 1.00
     Exponent=  1.7721504317D+01 Coefficients=  4.3394573193D-02
     Exponent=  3.8635505440D+00 Coefficients=  2.3094120765D-01
     Exponent=  1.0480920883D+00 Coefficients=  5.1375311064D-01
 P 1 1.00
     Exponent=  2.7641544411D-01 Coefficients=  1.0000000000D+00
 D 1 1.00
     Exponent=  1.2000000000D+00 Coefficients=  1.0000000000D+00
 ****
 Centers:      31     32     33     34     35     36     37     38     39
 S 5 1.00
     Exponent=  2.8948325990D+03 Coefficients= -5.3408255515D-03
     Exponent=  4.3541939120D+02 Coefficients= -3.9904258866D-02
     Exponent=  9.8843328866D+01 Coefficients= -1.7912768038D-01
     Exponent=  2.7485198001D+01 Coefficients= -4.6758090825D-01
     Exponent=  8.5405498171D+00 Coefficients= -4.4653131020D-01
 S 1 1.00
     Exponent=  1.0654578038D+00 Coefficients=  1.0000000000D+00
 S 1 1.00
     Exponent=  3.3247346748D-01 Coefficients=  1.0000000000D+00
 P 3 1.00
     Exponent=  2.2696633924D+01 Coefficients= -4.5212874436D-02
     Exponent=  4.9872339257D+00 Coefficients= -2.3754317067D-01
     Exponent=  1.3491613954D+00 Coefficients= -5.1287353587D-01
 P 1 1.00
     Exponent=  3.4829881977D-01 Coefficients=  1.0000000000D+00
 D 1 1.00
     Exponent=  1.4000000000D+00 Coefficients=  1.0000000000D+00
 ****
 Centers:      19     20     21
 S 5 1.00
     Exponent=  9.1849303010D+03 Coefficients= -2.2294387756D-03
     Exponent=  1.3815105503D+03 Coefficients= -1.6683029937D-02
     Exponent=  3.1387147580D+02 Coefficients= -7.5262436116D-02
     Exponent=  8.8053870623D+01 Coefficients= -1.9376827038D-01
     Exponent=  2.7039914905D+01 Coefficients= -1.7718020803D-01
 S 3 1.00
     Exponent=  4.5648731303D+01 Coefficients= -1.0736062573D-01
     Exponent=  4.9664522326D+00 Coefficients=  6.5066293018D-01
     Exponent=  2.0116242047D+00 Coefficients=  5.9712155354D-01
 S 1 1.00
     Exponent=  3.5661077013D-01 Coefficients=  1.0000000000D+00
 S 1 1.00
     Exponent=  1.3507221477D-01 Coefficients=  1.0000000000D+00
 P 5 1.00
     Exponent=  2.6198233439D+02 Coefficients= -9.2729929822D-03
     Exponent=  6.1306894736D+01 Coefficients= -6.6547669241D-02
     Exponent=  1.9103729887D+01 Coefficients= -2.4828595903D-01
     Exponent=  6.6567720378D+00 Coefficients= -4.8703847402D-01
     Exponent=  2.3959635161D+00 Coefficients= -3.9337850312D-01
 P 1 1.00
     Exponent=  6.1776161679D-01 Coefficients=  1.0000000000D+00
 P 1 1.00
     Exponent=  1.6993376871D-01 Coefficients=  1.0000000000D+00
 D 1 1.00
     Exponent=  5.5000000000D-01 Coefficients=  1.0000000000D+00
 ****
 Centers:      59
 S 8 1.00
     Exponent=  1.9161291874D+05 Coefficients=  2.3076475942D-04
     Exponent=  2.8723850363D+04 Coefficients=  1.7890329946D-03
     Exponent=  6.5370116490D+03 Coefficients=  9.2990401140D-03
     Exponent=  1.8503097171D+03 Coefficients=  3.7739438011D-02
     Exponent=  6.0238855156D+02 Coefficients=  1.2227148359D-01
     Exponent=  2.1617324766D+02 Coefficients=  2.8814821470D-01
     Exponent=  8.3712517880D+01 Coefficients=  4.0517543099D-01
     Exponent=  3.2908707189D+01 Coefficients=  2.0566019623D-01
 S 4 1.00
     Exponent=  2.1134393234D+02 Coefficients= -2.4527991462D-02
     Exponent=  6.5128920139D+01 Coefficients= -1.1570158142D-01
     Exponent=  1.0034311535D+01 Coefficients=  5.5995283317D-01
     Exponent=  4.1596884597D+00 Coefficients=  5.6087765073D-01
 S 2 1.00
     Exponent=  6.0009041613D+00 Coefficients= -2.2840494325D-01
     Exponent=  9.8255784150D-01 Coefficients=  7.1948970378D-01
 S 1 1.00
     Exponent=  4.2483192773D-01 Coefficients=  1.0000000000D+00
 S 1 1.00
     Exponent=  7.7185462096D-02 Coefficients=  1.0000000000D+00
 S 1 1.00
     Exponent=  3.0147219702D-02 Coefficients=  1.0000000000D+00
 P 6 1.00
     Exponent=  9.4734122823D+02 Coefficients=  2.4737208744D-03
     Exponent=  2.2409699732D+02 Coefficients=  1.9742967060D-02
     Exponent=  7.1560334882D+01 Coefficients=  9.0357147549D-02
     Exponent=  2.6444824490D+01 Coefficients=  2.5201602503D-01
     Exponent=  1.0393798285D+01 Coefficients=  3.9675535929D-01
     Exponent=  4.1606304559D+00 Coefficients=  2.3208624517D-01
 P 3 1.00
     Exponent=  1.5565737135D+01 Coefficients= -2.7129423974D-02
     Exponent=  2.1121544865D+00 Coefficients=  5.5109256629D-01
     Exponent=  8.4184709021D-01 Coefficients=  1.0090635806D+00
 P 1 1.00
     Exponent=  3.2297542652D-01 Coefficients=  1.0000000000D+00
 P 1 1.00
     Exponent=  8.9748000000D-02 Coefficients=  1.0000000000D+00
 D 4 1.00
     Exponent=  3.0989390993D+01 Coefficients=  1.1902837431D-02
     Exponent=  8.6905465069D+00 Coefficients=  6.7655856850D-02
     Exponent=  2.9520256337D+00 Coefficients=  2.1332539722D-01
     Exponent=  1.0761910745D+00 Coefficients=  3.8391075578D-01
 D 1 1.00
     Exponent=  3.8338915095D-01 Coefficients=  4.3354716259D-01
 D 1 1.00
     Exponent=  1.2534686113D-01 Coefficients=  2.4509263822D-01
 D 1 1.00
     Exponent=  4.1000000000D-02 Coefficients=  1.0000000000D+00
 F 1 1.00
     Exponent=  3.4500000000D-01 Coefficients=  1.0000000000D+00
 ****
 Ernie: Thresh=  0.10000D-02 Tol=  0.10000D-05 Strict=F.
 There are   934 symmetry adapted cartesian basis functions of A   symmetry.
 There are   875 symmetry adapted basis functions of A   symmetry.
   875 basis functions,  1564 primitive gaussians,   934 cartesian basis functions
   219 alpha electrons      219 beta electrons
       nuclear repulsion energy     10880.4443980258 Hartrees.
 IExCor= 7252 DFT=T Ex+Corr=MN15 ExCW=0 ScaHFX=  0.440000
 ScaDFX=  1.000000  1.000000  1.000000  1.000000 ScalE2=  1.000000  1.000000
 IRadAn=      5 IRanWt=     -1 IRanGd=            0 ICorTp=0 IEmpDi=  4
 NAtoms=   71 NActive=   71 NUniq=   71 SFac= 1.00D+00 NAtFMM=   60 NAOKFM=T Big=T
 Integral buffers will be    131072 words long.
 Raffenetti 2 integral format.
 Two-electron integral symmetry is turned on.
 Force inversion solution in PCM.
 ------------------------------------------------------------------------------
 Polarizable Continuum Model (PCM)
 =================================
 Model                : PCM.
 Atomic radii         : SMD-Coulomb.
 Polarization charges : Total charges.
 Charge compensation  : None.
 Solution method      : Matrix inversion.
 Cavity type          : VdW (van der Waals Surface) (Alpha=1.000).
 Cavity algorithm     : GePol (No added spheres)
                        Default sphere list used, NSphG=   71.
                        Lebedev-Laikov grids with approx.  5.0 points / Ang**2.
                        Smoothing algorithm: York/Karplus (Gamma=1.0000).
                        Polarization charges: spherical gaussians, with
                                              point-specific exponents (IZeta= 3).
                        Self-potential: point-specific (ISelfS= 7).
                        Self-field    : sphere-specific E.n sum rule (ISelfD= 2).
 1st derivatives      : Analytical E(r).r(x)/FMM algorithm (CHGder, D1EAlg=3).
                        Cavity 1st derivative terms included.
 2nd derivatives      : Analytical E(r).r(xy)/FMM algorithm (CHGder, D2EAlg=3).
                        Cavity 2nd derivative terms included.
 Solvent              : DiChloroEthane, Eps=  10.125000 Eps(inf)=   2.087447
 ------------------------------------------------------------------------------
 GePol: Number of generator spheres                  =      71
 GePol: Total number of spheres                      =      71
 GePol: Number of exposed spheres                    =      70 ( 98.59%)
 GePol: Number of points                             =    4814
 GePol: Average weight of points                     =       0.13
 GePol: Minimum weight of points                     =   0.27D-09
 GePol: Maximum weight of points                     =    0.21501
 GePol: Number of points with low weight             =     327
 GePol: Fraction of low-weight points (<1% of avg)   =       6.79%
 GePol: Cavity surface area                          =    608.607 Ang**2
 GePol: Cavity volume                                =    755.070 Ang**3
 ------------------------------------------------------------------------------
 Atomic radii for non-electrostatic terms: SMD-CDS.
 ------------------------------------------------------------------------------
 PCM non-electrostatic energy =         0.0066694780 Hartrees.
 Nuclear repulsion after PCM non-electrostatic terms =    10880.4510675038 Hartrees.
 Leave Link  301 at Thu Jan 30 06:28:08 2025, MaxMem= 82678120448 cpu:               8.6 elap:               0.4
 (Enter /sysapps/ubuntu-applications/gaussian-new/avx/g16/l302.exe)
 NPDir=0 NMtPBC=     1 NCelOv=     1 NCel=       1 NClECP=     1 NCelD=      1
         NCelK=      1 NCelE2=     1 NClLst=     1 CellRange=     0.0.
 One-electron integrals computed using PRISM.
 One-electron integral symmetry used in STVInt
 NBasis=   875 RedAO= T EigKep=  1.93D-04  NBF=   875
 NBsUse=   875 1.00D-06 EigRej= -1.00D+00 NBFU=   875
 Precomputing XC quadrature grid using
 IXCGrd= 4 IRadAn=           5 IRanWt=          -1 IRanGd=           0 AccXCQ= 0.00D+00.
 Generated NRdTot=       0 NPtTot=           0 NUsed=           0 NTot=          32
 NSgBfM=   885   884   885   885   885 MxSgAt=    71 MxSgA2=    71.
 Leave Link  302 at Thu Jan 30 06:28:11 2025, MaxMem= 82678120448 cpu:              56.7 elap:               2.5
 (Enter /sysapps/ubuntu-applications/gaussian-new/avx/g16/l303.exe)
 DipDrv:  MaxL=1.
 Leave Link  303 at Thu Jan 30 06:28:11 2025, MaxMem= 82678120448 cpu:               5.1 elap:               0.3
 (Enter /sysapps/ubuntu-applications/gaussian-new/avx/g16/l401.exe)
 ExpMin= 3.01D-02 ExpMax= 1.92D+05 ExpMxC= 1.85D+03 IAcc=3 IRadAn=         5 AccDes= 0.00D+00
 Harris functional with IExCor= 1009 and IRadAn=       5 diagonalized for initial guess.
 HarFok:  IExCor= 1009 AccDes= 0.00D+00 IRadAn=         5 IDoV= 1 UseB2=F ITyADJ=14
 ICtDFT=  3500011 ScaDFX=  1.000000  1.000000  1.000000  1.000000
 FoFCou: FMM=F IPFlag=           0 FMFlag=      100000 FMFlg1=        2001
         NFxFlg=           0 DoJE=T BraDBF=F KetDBF=T FulRan=T
         wScrn=  0.000000 ICntrl=       500 IOpCl=  0 I1Cent=   200000004 NGrid=           0
         NMat0=    1 NMatS0=      1 NMatT0=    0 NMatD0=    1 NMtDS0=    0 NMtDT0=    0
 Petite list used in FoFCou.
 Harris En= -4932.06539720101    
 JPrj=0 DoOrth=F DoCkMO=F.
 Leave Link  401 at Thu Jan 30 06:28:21 2025, MaxMem= 82678120448 cpu:             216.8 elap:               9.7
 (Enter /sysapps/ubuntu-applications/gaussian-new/avx/g16/l502.exe)
 Integral symmetry usage will be decided dynamically.
 Closed shell SCF:
 Using DIIS extrapolation, IDIIS=  1040.
 NGot= 82678120448 LenX= 82676343229 LenY= 82675469939
 Requested convergence on RMS density matrix=1.00D-08 within 500 cycles.
 Requested convergence on MAX density matrix=1.00D-06.
 Requested convergence on             energy=1.00D-06.
 No special actions if energy rises.
 Fock matrices will be formed incrementally for  20 cycles.

 Cycle   1  Pass 1  IDiag  1:
 FoFJK:  IHMeth= 1 ICntrl=       0 DoSepK=F KAlg= 0 I1Cent=           0 FoldK=F
 IRaf= 870000000 NMat=       1 IRICut=       1 DoRegI=T DoRafI=F ISym2E= 0 IDoP0=0 IntGTp=1.
 FoFCou: FMM=T IPFlag=           0 FMFlag=      100000 FMFlg1=        2001
         NFxFlg=           0 DoJE=F BraDBF=F KetDBF=F FulRan=T
         wScrn=  0.000000 ICntrl=         0 IOpCl=  0 I1Cent=           0 NGrid=           0
         NMat0=    1 NMatS0=      1 NMatT0=    0 NMatD0=    1 NMtDS0=    0 NMtDT0=    0
 Symmetry not used in FoFCou.
 FMM levels:  10  Number of levels for PrismC:   9
 Inv3:  Mode=1 IEnd=    69523788.
 Iteration    1 A*A^-1 deviation from unit magnitude is 6.77D-15 for   4804.
 Iteration    1 A*A^-1 deviation from orthogonality  is 3.02D-15 for   4805   4333.
 Iteration    1 A^-1*A deviation from unit magnitude is 6.77D-15 for   4804.
 Iteration    1 A^-1*A deviation from orthogonality  is 2.00D-15 for   3202   2166.
 E= -4930.49894785585    
 DIIS: error= 2.28D-02 at cycle   1 NSaved=   1.
 NSaved= 1 IEnMin= 1 EnMin= -4930.49894785585     IErMin= 1 ErrMin= 2.28D-02
 ErrMax= 2.28D-02  0.00D+00 EMaxC= 1.00D-01 BMatC= 1.91D+00 BMatP= 1.91D+00
 IDIUse=3 WtCom= 7.72D-01 WtEn= 2.28D-01
 Coeff-Com:  0.100D+01
 Coeff-En:   0.100D+01
 Coeff:      0.100D+01
 Gap=     0.297 Goal=   None    Shift=    0.000
 GapD=    0.297 DampG=1.000 DampE=0.250 DampFc=0.2500 IDamp=-1.
 Damping current iteration by 2.50D-01
 RMSDP=3.59D-03 MaxDP=3.87D-01              OVMax= 2.39D-01

 Cycle   2  Pass 1  IDiag  1:
 RMSU=  8.97D-04    CP:  9.99D-01
 E= -4931.00810116218     Delta-E=       -0.509153306328 Rises=F Damp=T
 DIIS: error= 1.00D-02 at cycle   2 NSaved=   2.
 NSaved= 2 IEnMin= 2 EnMin= -4931.00810116218     IErMin= 2 ErrMin= 1.00D-02
 ErrMax= 1.00D-02  0.00D+00 EMaxC= 1.00D-01 BMatC= 3.43D-01 BMatP= 1.91D+00
 IDIUse=3 WtCom= 9.00D-01 WtEn= 1.00D-01
 Coeff-Com: -0.588D+00 0.159D+01
 Coeff-En:   0.000D+00 0.100D+01
 Coeff:     -0.530D+00 0.153D+01
 Gap=     0.262 Goal=   None    Shift=    0.000
 RMSDP=9.86D-04 MaxDP=1.08D-01 DE=-5.09D-01 OVMax= 1.58D-01

 Cycle   3  Pass 1  IDiag  1:
 RMSU=  7.99D-04    CP:  9.94D-01  1.64D+00
 E= -4931.89239849398     Delta-E=       -0.884297331797 Rises=F Damp=F
 DIIS: error= 5.57D-03 at cycle   3 NSaved=   3.
 NSaved= 3 IEnMin= 3 EnMin= -4931.89239849398     IErMin= 3 ErrMin= 5.57D-03
 ErrMax= 5.57D-03  0.00D+00 EMaxC= 1.00D-01 BMatC= 5.05D-02 BMatP= 3.43D-01
 IDIUse=3 WtCom= 9.44D-01 WtEn= 5.57D-02
 Coeff-Com: -0.291D+00 0.666D+00 0.625D+00
 Coeff-En:   0.000D+00 0.000D+00 0.100D+01
 Coeff:     -0.275D+00 0.629D+00 0.646D+00
 Gap=     0.225 Goal=   None    Shift=    0.000
 RMSDP=3.93D-04 MaxDP=3.56D-02 DE=-8.84D-01 OVMax= 4.44D-02

 Cycle   4  Pass 1  IDiag  1:
 RMSU=  3.24D-04    CP:  9.96D-01  1.72D+00  7.39D-01
 E= -4931.92228812811     Delta-E=       -0.029889634136 Rises=F Damp=F
 DIIS: error= 3.29D-03 at cycle   4 NSaved=   4.
 NSaved= 4 IEnMin= 4 EnMin= -4931.92228812811     IErMin= 4 ErrMin= 3.29D-03
 ErrMax= 3.29D-03  0.00D+00 EMaxC= 1.00D-01 BMatC= 1.96D-02 BMatP= 5.05D-02
 IDIUse=3 WtCom= 9.67D-01 WtEn= 3.29D-02
 Coeff-Com: -0.118D+00 0.222D+00 0.405D+00 0.491D+00
 Coeff-En:   0.000D+00 0.000D+00 0.255D+00 0.745D+00
 Coeff:     -0.114D+00 0.215D+00 0.400D+00 0.499D+00
 Gap=     0.220 Goal=   None    Shift=    0.000
 RMSDP=1.84D-04 MaxDP=1.73D-02 DE=-2.99D-02 OVMax= 2.19D-02

 Cycle   5  Pass 1  IDiag  1:
 RMSU=  1.18D-04    CP:  9.96D-01  1.69D+00  8.11D-01  6.08D-01
 E= -4931.93701438323     Delta-E=       -0.014726255113 Rises=F Damp=F
 DIIS: error= 1.18D-03 at cycle   5 NSaved=   5.
 NSaved= 5 IEnMin= 5 EnMin= -4931.93701438323     IErMin= 5 ErrMin= 1.18D-03
 ErrMax= 1.18D-03  0.00D+00 EMaxC= 1.00D-01 BMatC= 1.78D-03 BMatP= 1.96D-02
 IDIUse=3 WtCom= 9.88D-01 WtEn= 1.18D-02
 Coeff-Com: -0.345D-01 0.461D-01 0.134D+00 0.272D+00 0.583D+00
 Coeff-En:   0.000D+00 0.000D+00 0.000D+00 0.300D-01 0.970D+00
 Coeff:     -0.341D-01 0.455D-01 0.132D+00 0.269D+00 0.587D+00
 Gap=     0.221 Goal=   None    Shift=    0.000
 RMSDP=5.46D-05 MaxDP=5.54D-03 DE=-1.47D-02 OVMax= 7.23D-03

 Cycle   6  Pass 1  IDiag  1:
 RMSU=  3.81D-05    CP:  9.95D-01  1.71D+00  8.18D-01  6.39D-01  7.20D-01
 E= -4931.93850925913     Delta-E=       -0.001494875907 Rises=F Damp=F
 DIIS: error= 3.31D-04 at cycle   6 NSaved=   6.
 NSaved= 6 IEnMin= 6 EnMin= -4931.93850925913     IErMin= 6 ErrMin= 3.31D-04
 ErrMax= 3.31D-04  0.00D+00 EMaxC= 1.00D-01 BMatC= 1.56D-04 BMatP= 1.78D-03
 IDIUse=3 WtCom= 9.97D-01 WtEn= 3.31D-03
 Coeff-Com: -0.813D-02 0.475D-02 0.295D-01 0.829D-01 0.296D+00 0.595D+00
 Coeff-En:   0.000D+00 0.000D+00 0.000D+00 0.000D+00 0.000D+00 0.100D+01
 Coeff:     -0.810D-02 0.474D-02 0.294D-01 0.826D-01 0.295D+00 0.596D+00
 Gap=     0.221 Goal=   None    Shift=    0.000
 RMSDP=1.85D-05 MaxDP=1.38D-03 DE=-1.49D-03 OVMax= 1.82D-03

 Cycle   7  Pass 1  IDiag  1:
 RMSU=  1.36D-05    CP:  9.95D-01  1.71D+00  8.22D-01  6.46D-01  7.78D-01
                    CP:  7.49D-01
 E= -4931.93862041699     Delta-E=       -0.000111157859 Rises=F Damp=F
 DIIS: error= 8.76D-05 at cycle   7 NSaved=   7.
 NSaved= 7 IEnMin= 7 EnMin= -4931.93862041699     IErMin= 7 ErrMin= 8.76D-05
 ErrMax= 8.76D-05  0.00D+00 EMaxC= 1.00D-01 BMatC= 2.87D-05 BMatP= 1.56D-04
 IDIUse=1 WtCom= 1.00D+00 WtEn= 0.00D+00
 Coeff-Com: -0.110D-02-0.207D-02 0.894D-03 0.139D-01 0.105D+00 0.356D+00
 Coeff-Com:  0.528D+00
 Coeff:     -0.110D-02-0.207D-02 0.894D-03 0.139D-01 0.105D+00 0.356D+00
 Coeff:      0.528D+00
 Gap=     0.221 Goal=   None    Shift=    0.000
 RMSDP=6.65D-06 MaxDP=4.77D-04 DE=-1.11D-04 OVMax= 1.34D-03

 Cycle   8  Pass 1  IDiag  1:
 RMSU=  5.28D-06    CP:  9.95D-01  1.71D+00  8.23D-01  6.49D-01  7.90D-01
                    CP:  8.03D-01  7.77D-01
 E= -4931.93864308641     Delta-E=       -0.000022669417 Rises=F Damp=F
 DIIS: error= 2.38D-05 at cycle   8 NSaved=   8.
 NSaved= 8 IEnMin= 8 EnMin= -4931.93864308641     IErMin= 8 ErrMin= 2.38D-05
 ErrMax= 2.38D-05  0.00D+00 EMaxC= 1.00D-01 BMatC= 1.64D-06 BMatP= 2.87D-05
 IDIUse=1 WtCom= 1.00D+00 WtEn= 0.00D+00
 Coeff-Com:  0.637D-03-0.118D-02-0.418D-02-0.814D-02-0.380D-02 0.456D-01
 Coeff-Com:  0.213D+00 0.758D+00
 Coeff:      0.637D-03-0.118D-02-0.418D-02-0.814D-02-0.380D-02 0.456D-01
 Coeff:      0.213D+00 0.758D+00
 Gap=     0.221 Goal=   None    Shift=    0.000
 RMSDP=2.61D-06 MaxDP=1.62D-04 DE=-2.27D-05 OVMax= 6.20D-04

 Cycle   9  Pass 1  IDiag  1:
 RMSU=  1.93D-06    CP:  9.95D-01  1.71D+00  8.23D-01  6.49D-01  7.95D-01
                    CP:  8.31D-01  8.62D-01  9.30D-01
 E= -4931.93864482768     Delta-E=       -0.000001741275 Rises=F Damp=F
 DIIS: error= 6.91D-06 at cycle   9 NSaved=   9.
 NSaved= 9 IEnMin= 9 EnMin= -4931.93864482768     IErMin= 9 ErrMin= 6.91D-06
 ErrMax= 6.91D-06  0.00D+00 EMaxC= 1.00D-01 BMatC= 2.25D-07 BMatP= 1.64D-06
 IDIUse=1 WtCom= 1.00D+00 WtEn= 0.00D+00
 Coeff-Com:  0.414D-03-0.409D-03-0.188D-02-0.497D-02-0.103D-01-0.132D-01
 Coeff-Com:  0.499D-01 0.344D+00 0.637D+00
 Coeff:      0.414D-03-0.409D-03-0.188D-02-0.497D-02-0.103D-01-0.132D-01
 Coeff:      0.499D-01 0.344D+00 0.637D+00
 Gap=     0.221 Goal=   None    Shift=    0.000
 RMSDP=9.89D-07 MaxDP=8.89D-05 DE=-1.74D-06 OVMax= 2.32D-04

 Cycle  10  Pass 1  IDiag  1:
 RMSU=  6.84D-07    CP:  9.95D-01  1.71D+00  8.23D-01  6.48D-01  7.97D-01
                    CP:  8.38D-01  8.87D-01  1.02D+00  9.19D-01
 E= -4931.93864507270     Delta-E=       -0.000000245016 Rises=F Damp=F
 DIIS: error= 3.95D-06 at cycle  10 NSaved=  10.
 NSaved=10 IEnMin=10 EnMin= -4931.93864507270     IErMin=10 ErrMin= 3.95D-06
 ErrMax= 3.95D-06  0.00D+00 EMaxC= 1.00D-01 BMatC= 3.30D-08 BMatP= 2.25D-07
 IDIUse=1 WtCom= 1.00D+00 WtEn= 0.00D+00
 Coeff-Com:  0.126D-03-0.637D-04-0.211D-03-0.109D-02-0.390D-02-0.134D-01
 Coeff-Com: -0.629D-02 0.459D-01 0.279D+00 0.700D+00
 Coeff:      0.126D-03-0.637D-04-0.211D-03-0.109D-02-0.390D-02-0.134D-01
 Coeff:     -0.629D-02 0.459D-01 0.279D+00 0.700D+00
 Gap=     0.221 Goal=   None    Shift=    0.000
 RMSDP=4.43D-07 MaxDP=2.66D-05 DE=-2.45D-07 OVMax= 1.35D-04

 Cycle  11  Pass 1  IDiag  1:
 RMSU=  2.76D-07    CP:  9.95D-01  1.71D+00  8.23D-01  6.48D-01  7.98D-01
                    CP:  8.39D-01  9.01D-01  1.05D+00  1.01D+00  9.84D-01
 E= -4931.93864511297     Delta-E=       -0.000000040271 Rises=F Damp=F
 DIIS: error= 2.26D-06 at cycle  11 NSaved=  11.
 NSaved=11 IEnMin=11 EnMin= -4931.93864511297     IErMin=11 ErrMin= 2.26D-06
 ErrMax= 2.26D-06  0.00D+00 EMaxC= 1.00D-01 BMatC= 9.46D-09 BMatP= 3.30D-08
 IDIUse=1 WtCom= 1.00D+00 WtEn= 0.00D+00
 Coeff-Com: -0.119D-05 0.341D-04 0.277D-03 0.407D-03-0.156D-03-0.528D-02
 Coeff-Com: -0.131D-01-0.457D-01 0.178D-01 0.392D+00 0.654D+00
 Coeff:     -0.119D-05 0.341D-04 0.277D-03 0.407D-03-0.156D-03-0.528D-02
 Coeff:     -0.131D-01-0.457D-01 0.178D-01 0.392D+00 0.654D+00
 Gap=     0.221 Goal=   None    Shift=    0.000
 RMSDP=2.07D-07 MaxDP=1.12D-05 DE=-4.03D-08 OVMax= 6.61D-05

 Cycle  12  Pass 1  IDiag  1:
 RMSU=  1.14D-07    CP:  9.95D-01  1.71D+00  8.23D-01  6.48D-01  7.98D-01
                    CP:  8.40D-01  9.06D-01  1.07D+00  1.06D+00  1.11D+00
                    CP:  9.55D-01
 E= -4931.93864512326     Delta-E=       -0.000000010288 Rises=F Damp=F
 DIIS: error= 5.28D-07 at cycle  12 NSaved=  12.
 NSaved=12 IEnMin=12 EnMin= -4931.93864512326     IErMin=12 ErrMin= 5.28D-07
 ErrMax= 5.28D-07  0.00D+00 EMaxC= 1.00D-01 BMatC= 8.83D-10 BMatP= 9.46D-09
 IDIUse=1 WtCom= 1.00D+00 WtEn= 0.00D+00
 Coeff-Com: -0.128D-04 0.162D-04 0.156D-03 0.352D-03 0.491D-03-0.353D-03
 Coeff-Com: -0.466D-02-0.280D-01-0.348D-01 0.717D-01 0.287D+00 0.708D+00
 Coeff:     -0.128D-04 0.162D-04 0.156D-03 0.352D-03 0.491D-03-0.353D-03
 Coeff:     -0.466D-02-0.280D-01-0.348D-01 0.717D-01 0.287D+00 0.708D+00
 Gap=     0.221 Goal=   None    Shift=    0.000
 RMSDP=7.32D-08 MaxDP=3.94D-06 DE=-1.03D-08 OVMax= 2.39D-05

 Cycle  13  Pass 1  IDiag  1:
 RMSU=  3.81D-08    CP:  9.95D-01  1.71D+00  8.23D-01  6.48D-01  7.98D-01
                    CP:  8.41D-01  9.07D-01  1.07D+00  1.07D+00  1.16D+00
                    CP:  1.05D+00  9.27D-01
 E= -4931.93864512450     Delta-E=       -0.000000001242 Rises=F Damp=F
 DIIS: error= 1.43D-07 at cycle  13 NSaved=  13.
 NSaved=13 IEnMin=13 EnMin= -4931.93864512450     IErMin=13 ErrMin= 1.43D-07
 ErrMax= 1.43D-07  0.00D+00 EMaxC= 1.00D-01 BMatC= 1.24D-10 BMatP= 8.83D-10
 IDIUse=1 WtCom= 1.00D+00 WtEn= 0.00D+00
 Coeff-Com: -0.311D-05-0.320D-06 0.410D-04 0.118D-03 0.231D-03 0.384D-03
 Coeff-Com: -0.670D-03-0.801D-02-0.169D-01-0.773D-02 0.601D-01 0.335D+00
 Coeff-Com:  0.637D+00
 Coeff:     -0.311D-05-0.320D-06 0.410D-04 0.118D-03 0.231D-03 0.384D-03
 Coeff:     -0.670D-03-0.801D-02-0.169D-01-0.773D-02 0.601D-01 0.335D+00
 Coeff:      0.637D+00
 Gap=     0.221 Goal=   None    Shift=    0.000
 RMSDP=2.01D-08 MaxDP=1.28D-06 DE=-1.24D-09 OVMax= 5.68D-06

 Cycle  14  Pass 1  IDiag  1:
 RMSU=  1.31D-08    CP:  9.95D-01  1.71D+00  8.23D-01  6.48D-01  7.98D-01
                    CP:  8.41D-01  9.08D-01  1.07D+00  1.08D+00  1.17D+00
                    CP:  1.07D+00  9.78D-01  9.09D-01
 E= -4931.93864512438     Delta-E=        0.000000000118 Rises=F Damp=F
 DIIS: error= 4.57D-08 at cycle  14 NSaved=  14.
 NSaved=14 IEnMin=13 EnMin= -4931.93864512450     IErMin=14 ErrMin= 4.57D-08
 ErrMax= 4.57D-08  0.00D+00 EMaxC= 1.00D-01 BMatC= 1.44D-11 BMatP= 1.24D-10
 IDIUse=1 WtCom= 1.00D+00 WtEn= 0.00D+00
 Coeff-Com:  0.530D-06-0.229D-05-0.435D-05 0.163D-05 0.324D-04 0.245D-03
 Coeff-Com:  0.445D-03 0.583D-03-0.219D-02-0.149D-01-0.181D-01 0.429D-01
 Coeff-Com:  0.279D+00 0.712D+00
 Coeff:      0.530D-06-0.229D-05-0.435D-05 0.163D-05 0.324D-04 0.245D-03
 Coeff:      0.445D-03 0.583D-03-0.219D-02-0.149D-01-0.181D-01 0.429D-01
 Coeff:      0.279D+00 0.712D+00
 Gap=     0.221 Goal=   None    Shift=    0.000
 RMSDP=8.48D-09 MaxDP=4.22D-07 DE= 1.18D-10 OVMax= 1.74D-06

 Error on total polarization charges =  0.02978
 SCF Done:  E(RMN15) =  -4931.93864512     A.U. after   14 cycles
            NFock= 14  Conv=0.85D-08     -V/T= 2.0065
 KE= 4.900215633919D+03 PE=-3.338442168494D+04 EE= 1.267181633840D+04
 SMD-CDS (non-electrostatic) energy       (kcal/mol) =       4.19
 (included in total energy above)
 Leave Link  502 at Thu Jan 30 06:38:22 2025, MaxMem= 82678120448 cpu:           13774.1 elap:             600.4
 (Enter /sysapps/ubuntu-applications/gaussian-new/avx/g16/l801.exe)
 DoSCS=F DFT=T ScalE2(SS,OS)=  1.000000  1.000000
 Range of M.O.s used for correlation:     1   875
 NBasis=   875 NAE=   219 NBE=   219 NFC=     0 NFV=     0
 NROrb=    875 NOA=   219 NOB=   219 NVA=   656 NVB=   656
 Leave Link  801 at Thu Jan 30 06:38:22 2025, MaxMem= 82678120448 cpu:               3.0 elap:               0.2
 (Enter /sysapps/ubuntu-applications/gaussian-new/avx/g16/l1101.exe)
 Using compressed storage, NAtomX=    71.
 Will process     72 centers per pass.
 Leave Link 1101 at Thu Jan 30 06:38:32 2025, MaxMem= 82678120448 cpu:             240.4 elap:              10.3
 (Enter /sysapps/ubuntu-applications/gaussian-new/avx/g16/l1102.exe)
 Symmetrizing basis deriv contribution to polar:
 IMax=3 JMax=2 DiffMx= 0.00D+00
 Leave Link 1102 at Thu Jan 30 06:38:34 2025, MaxMem= 82678120448 cpu:               6.1 elap:               0.4
 (Enter /sysapps/ubuntu-applications/gaussian-new/avx/g16/l1110.exe)
 Forming Gx(P) for the SCF density, NAtomX=    71.
 Integral derivatives from FoFJK, PRISM(SPDF).
 Do as many integral derivatives as possible in FoFJK.
 G2DrvN: MDV=   82678114348.
 G2DrvN: will do    72 centers at a time, making    1 passes.
 Calling FoFCou, ICntrl=  3107 FMM=T I1Cent=   0 AccDes= 0.00D+00.
 FoFJK:  IHMeth= 1 ICntrl=    3107 DoSepK=F KAlg= 0 I1Cent=           0 FoldK=F
 IRaf=         0 NMat=       1 IRICut=       1 DoRegI=T DoRafI=F ISym2E= 0 IDoP0=0 IntGTp=1.
 FoFCou: FMM=T IPFlag=           0 FMFlag=      100000 FMFlg1=        2001
         NFxFlg=           0 DoJE=F BraDBF=F KetDBF=F FulRan=T
         wScrn=  0.000000 ICntrl=      3107 IOpCl=  0 I1Cent=           0 NGrid=           0
         NMat0=    1 NMatS0=      1 NMatT0=    0 NMatD0=    1 NMtDS0=    0 NMtDT0=    0
 Symmetry not used in FoFCou.
 FMM levels:  10  Number of levels for PrismC:   9
 NEqPCM:  Using equilibrium solvation (IEInf=0, Eps=  10.1250, EpsInf=   2.0874)
 G2PCM: DoFxE=T DoFxN=T DoGrad=T DoDP/DQ/DG/TGxP=FFFF NFrqRd=   0 IEInf=0 SqF1=F DoCFld=F IF1Alg=4.
 GePol: Maximum number of non-zero 1st derivatives   =     264
 End of G2Drv F.D. properties file   721 does not exist.
 End of G2Drv F.D. properties file   722 does not exist.
 End of G2Drv F.D. properties file   788 does not exist.
 Leave Link 1110 at Thu Jan 30 07:15:00 2025, MaxMem= 82678120448 cpu:           50989.4 elap:            2185.9
 (Enter /sysapps/ubuntu-applications/gaussian-new/avx/g16/l1002.exe)
 Minotr:  Closed shell wavefunction.
          IDoAtm=11111111111111111111111111111111111111111111111111
          IDoAtm=111111111111111111111
 NEqPCM:  Using equilibrium solvation (IEInf=0, Eps=  10.1250, EpsInf=   2.0874)
          Direct CPHF calculation.
          Differentiating once with respect to electric field.
                with respect to dipole field.
          Differentiating once with respect to nuclear coordinates.
          Requested convergence is 1.0D-08 RMS, and 1.0D-07 maximum.
          Secondary convergence is 1.0D-12 RMS, and 1.0D-12 maximum.
          NewPWx=T KeepS1=F KeepF1=F KeepIn=T MapXYZ=F SortEE=F KeepMc=T.
        21901 words used for storage of precomputed grid.
 Two-electron integrals replicated using symmetry.
          MDV=   82678120448 using IRadAn=       1.
          Solving linear equations simultaneously, MaxMat=      72.
 FoF2E skips out because all densities are zero.
 CalDSu exits because no D1Ps are significant.
 FoFJK:  IHMeth= 1 ICntrl=       0 DoSepK=F KAlg= 0 I1Cent=           0 FoldK=F
 IRaf= 810000000 NMat=      72 IRICut=       1 DoRegI=T DoRafI=F ISym2E= 2 IDoP0=3 IntGTp=3.
          There are   216 degrees of freedom in the 1st order CPHF.  IDoFFX=6 NUNeed=     3.
    216 vectors produced by pass  0 Test12= 1.44D-13 1.00D-09 XBig12= 2.24D+02 3.11D+00.
 AX will form    72 AO Fock derivatives at one time.
    213 vectors produced by pass  1 Test12= 1.44D-13 1.00D-09 XBig12= 4.10D+01 4.73D-01.
    213 vectors produced by pass  2 Test12= 1.44D-13 1.00D-09 XBig12= 1.40D+00 7.19D-02.
    213 vectors produced by pass  3 Test12= 1.44D-13 1.00D-09 XBig12= 2.08D-02 9.88D-03.
    213 vectors produced by pass  4 Test12= 1.44D-13 1.00D-09 XBig12= 1.71D-04 1.11D-03.
    213 vectors produced by pass  5 Test12= 1.44D-13 1.00D-09 XBig12= 8.45D-07 5.04D-05.
    176 vectors produced by pass  6 Test12= 1.44D-13 1.00D-09 XBig12= 3.28D-09 3.59D-06.
     46 vectors produced by pass  7 Test12= 1.44D-13 1.00D-09 XBig12= 1.10D-11 1.54D-07.
      3 vectors produced by pass  8 Test12= 1.44D-13 1.00D-09 XBig12= 3.29D-14 1.08D-08.
      1 vectors produced by pass  9 Test12= 1.44D-13 1.00D-09 XBig12= 5.73D-16 1.02D-09.
 InvSVY:  IOpt=1 It=  1 EMax= 1.60D-14
 Solved reduced A of dimension  1507 with   216 vectors.
 FullF1:  Do perturbations      1 to       3.
 Isotropic polarizability for W=    0.000000      459.73 Bohr**3.
 End of Minotr F.D. properties file   721 does not exist.
 End of Minotr F.D. properties file   722 does not exist.
 End of Minotr F.D. properties file   788 does not exist.
 Leave Link 1002 at Thu Jan 30 08:50:06 2025, MaxMem= 82678120448 cpu:          133344.2 elap:            5705.6
 (Enter /sysapps/ubuntu-applications/gaussian-new/avx/g16/l601.exe)
 Copying SCF densities to generalized density rwf, IOpCl= 0 IROHF=0.

 **********************************************************************

            Population analysis using the SCF density.

 **********************************************************************

 Orbital symmetries:
       Occupied  (A) (A) (A) (A) (A) (A) (A) (A) (A) (A) (A) (A)
                 (A) (A) (A) (A) (A) (A) (A) (A) (A) (A) (A) (A)
                 (A) (A) (A) (A) (A) (A) (A) (A) (A) (A) (A) (A)
                 (A) (A) (A) (A) (A) (A) (A) (A) (A) (A) (A) (A)
                 (A) (A) (A) (A) (A) (A) (A) (A) (A) (A) (A) (A)
                 (A) (A) (A) (A) (A) (A) (A) (A) (A) (A) (A) (A)
                 (A) (A) (A) (A) (A) (A) (A) (A) (A) (A) (A) (A)
                 (A) (A) (A) (A) (A) (A) (A) (A) (A) (A) (A) (A)
                 (A) (A) (A) (A) (A) (A) (A) (A) (A) (A) (A) (A)
                 (A) (A) (A) (A) (A) (A) (A) (A) (A) (A) (A) (A)
                 (A) (A) (A) (A) (A) (A) (A) (A) (A) (A) (A) (A)
                 (A) (A) (A) (A) (A) (A) (A) (A) (A) (A) (A) (A)
                 (A) (A) (A) (A) (A) (A) (A) (A) (A) (A) (A) (A)
                 (A) (A) (A) (A) (A) (A) (A) (A) (A) (A) (A) (A)
                 (A) (A) (A) (A) (A) (A) (A) (A) (A) (A) (A) (A)
                 (A) (A) (A) (A) (A) (A) (A) (A) (A) (A) (A) (A)
                 (A) (A) (A) (A) (A) (A) (A) (A) (A) (A) (A) (A)
                 (A) (A) (A) (A) (A) (A) (A) (A) (A) (A) (A) (A)
                 (A) (A) (A)
       Virtual   (A) (A) (A) (A) (A) (A) (A) (A) (A) (A) (A) (A)
                 (A) (A) (A) (A) (A) (A) (A) (A) (A) (A) (A) (A)
                 (A) (A) (A) (A) (A) (A) (A) (A) (A) (A) (A) (A)
                 (A) (A) (A) (A) (A) (A) (A) (A) (A) (A) (A) (A)
                 (A) (A) (A) (A) (A) (A) (A) (A) (A) (A) (A) (A)
                 (A) (A) (A) (A) (A) (A) (A) (A) (A) (A) (A) (A)
                 (A) (A) (A) (A) (A) (A) (A) (A) (A) (A) (A) (A)
                 (A) (A) (A) (A) (A) (A) (A) (A) (A) (A) (A) (A)
                 (A) (A) (A) (A) (A) (A) (A) (A) (A) (A) (A) (A)
                 (A) (A) (A) (A) (A) (A) (A) (A) (A) (A) (A) (A)
                 (A) (A) (A) (A) (A) (A) (A) (A) (A) (A) (A) (A)
                 (A) (A) (A) (A) (A) (A) (A) (A) (A) (A) (A) (A)
                 (A) (A) (A) (A) (A) (A) (A) (A) (A) (A) (A) (A)
                 (A) (A) (A) (A) (A) (A) (A) (A) (A) (A) (A) (A)
                 (A) (A) (A) (A) (A) (A) (A) (A) (A) (A) (A) (A)
                 (A) (A) (A) (A) (A) (A) (A) (A) (A) (A) (A) (A)
                 (A) (A) (A) (A) (A) (A) (A) (A) (A) (A) (A) (A)
                 (A) (A) (A) (A) (A) (A) (A) (A) (A) (A) (A) (A)
                 (A) (A) (A) (A) (A) (A) (A) (A) (A) (A) (A) (A)
                 (A) (A) (A) (A) (A) (A) (A) (A) (A) (A) (A) (A)
                 (A) (A) (A) (A) (A) (A) (A) (A) (A) (A) (A) (A)
                 (A) (A) (A) (A) (A) (A) (A) (A) (A) (A) (A) (A)
                 (A) (A) (A) (A) (A) (A) (A) (A) (A) (A) (A) (A)
                 (A) (A) (A) (A) (A) (A) (A) (A) (A) (A) (A) (A)
                 (A) (A) (A) (A) (A) (A) (A) (A) (A) (A) (A) (A)
                 (A) (A) (A) (A) (A) (A) (A) (A) (A) (A) (A) (A)
                 (A) (A) (A) (A) (A) (A) (A) (A) (A) (A) (A) (A)
                 (A) (A) (A) (A) (A) (A) (A) (A) (A) (A) (A) (A)
                 (A) (A) (A) (A) (A) (A) (A) (A) (A) (A) (A) (A)
                 (A) (A) (A) (A) (A) (A) (A) (A) (A) (A) (A) (A)
                 (A) (A) (A) (A) (A) (A) (A) (A) (A) (A) (A) (A)
                 (A) (A) (A) (A) (A) (A) (A) (A) (A) (A) (A) (A)
                 (A) (A) (A) (A) (A) (A) (A) (A) (A) (A) (A) (A)
                 (A) (A) (A) (A) (A) (A) (A) (A) (A) (A) (A) (A)
                 (A) (A) (A) (A) (A) (A) (A) (A) (A) (A) (A) (A)
                 (A) (A) (A) (A) (A) (A) (A) (A) (A) (A) (A) (A)
                 (A) (A) (A) (A) (A) (A) (A) (A) (A) (A) (A) (A)
                 (A) (A) (A) (A) (A) (A) (A) (A) (A) (A) (A) (A)
                 (A) (A) (A) (A) (A) (A) (A) (A) (A) (A) (A) (A)
                 (A) (A) (A) (A) (A) (A) (A) (A) (A) (A) (A) (A)
                 (A) (A) (A) (A) (A) (A) (A) (A) (A) (A) (A) (A)
                 (A) (A) (A) (A) (A) (A) (A) (A) (A) (A) (A) (A)
                 (A) (A) (A) (A) (A) (A) (A) (A) (A) (A) (A) (A)
                 (A) (A) (A) (A) (A) (A) (A) (A) (A) (A) (A) (A)
                 (A) (A) (A) (A) (A) (A) (A) (A) (A) (A) (A) (A)
                 (A) (A) (A) (A) (A) (A) (A) (A) (A) (A) (A) (A)
                 (A) (A) (A) (A) (A) (A) (A) (A) (A) (A) (A) (A)
                 (A) (A) (A) (A) (A) (A) (A) (A) (A) (A) (A) (A)
                 (A) (A) (A) (A) (A) (A) (A) (A) (A) (A) (A) (A)
                 (A) (A) (A) (A) (A) (A) (A) (A) (A) (A) (A) (A)
                 (A) (A) (A) (A) (A) (A) (A) (A) (A) (A) (A) (A)
                 (A) (A) (A) (A) (A) (A) (A) (A) (A) (A) (A) (A)
                 (A) (A) (A) (A) (A) (A) (A) (A) (A) (A) (A) (A)
                 (A) (A) (A) (A) (A) (A) (A) (A) (A) (A) (A) (A)
                 (A) (A) (A) (A) (A) (A) (A) (A)
 The electronic state is 1-A.
 Alpha  occ. eigenvalues -- -160.22777 -88.07229 -88.06928 -88.06774 -24.34832
 Alpha  occ. eigenvalues --  -24.34815 -24.34784 -24.34669 -24.34653 -24.34581
 Alpha  occ. eigenvalues --  -24.34252 -24.34225 -24.34138 -18.92096 -18.91597
 Alpha  occ. eigenvalues --  -18.87414 -18.87370 -18.85890 -18.85777 -18.85678
 Alpha  occ. eigenvalues --  -18.85468 -18.85256 -18.85136 -18.84815 -18.84327
 Alpha  occ. eigenvalues --  -18.84160 -17.21346 -14.51490 -14.51456 -14.51420
 Alpha  occ. eigenvalues --  -14.18204 -14.15075 -14.13484 -14.12838 -10.34361
 Alpha  occ. eigenvalues --  -10.34259 -10.34114 -10.26010 -10.25686 -10.19535
 Alpha  occ. eigenvalues --  -10.14157 -10.13544 -10.12459 -10.12410 -10.12343
 Alpha  occ. eigenvalues --  -10.12189 -10.10973 -10.10297 -10.10034 -10.08514
 Alpha  occ. eigenvalues --  -10.08058 -10.07042 -10.06463 -10.06381 -10.06071
 Alpha  occ. eigenvalues --  -10.06031 -10.05948  -7.97055  -7.96738  -7.96574
 Alpha  occ. eigenvalues --   -6.16583  -6.16529  -6.16379  -6.16268  -6.16209
 Alpha  occ. eigenvalues --   -6.16108  -6.16071  -6.16044  -6.15912  -2.17593
 Alpha  occ. eigenvalues --   -1.42204  -1.42155  -1.41832  -1.38552  -1.38517
 Alpha  occ. eigenvalues --   -1.38130  -1.28548  -1.28543  -1.28524  -1.28444
 Alpha  occ. eigenvalues --   -1.28098  -1.27967  -1.21708  -1.21251  -1.20949
 Alpha  occ. eigenvalues --   -1.20681  -1.20411  -1.11283  -1.10091  -1.09152
 Alpha  occ. eigenvalues --   -1.08725  -1.08132  -1.07658  -1.06438  -1.06055
 Alpha  occ. eigenvalues --   -1.06031  -0.97936  -0.95899  -0.94804  -0.91486
 Alpha  occ. eigenvalues --   -0.90402  -0.86500  -0.84408  -0.81714  -0.81088
 Alpha  occ. eigenvalues --   -0.80904  -0.80834  -0.80147  -0.79373  -0.78550
 Alpha  occ. eigenvalues --   -0.75425  -0.73131  -0.72912  -0.72831  -0.72405
 Alpha  occ. eigenvalues --   -0.70234  -0.68902  -0.68470  -0.68428  -0.68400
 Alpha  occ. eigenvalues --   -0.68347  -0.68050  -0.67986  -0.65913  -0.65521
 Alpha  occ. eigenvalues --   -0.64830  -0.64417  -0.63687  -0.63436  -0.62959
 Alpha  occ. eigenvalues --   -0.62712  -0.62327  -0.61958  -0.60528  -0.60196
 Alpha  occ. eigenvalues --   -0.59656  -0.58909  -0.58277  -0.57812  -0.57464
 Alpha  occ. eigenvalues --   -0.57084  -0.56789  -0.56457  -0.56120  -0.55898
 Alpha  occ. eigenvalues --   -0.55771  -0.55552  -0.55502  -0.55275  -0.55209
 Alpha  occ. eigenvalues --   -0.54700  -0.54610  -0.54425  -0.54051  -0.53878
 Alpha  occ. eigenvalues --   -0.53742  -0.53010  -0.52539  -0.52442  -0.52287
 Alpha  occ. eigenvalues --   -0.52221  -0.52129  -0.51977  -0.51662  -0.51253
 Alpha  occ. eigenvalues --   -0.50797  -0.49860  -0.49765  -0.49736  -0.49285
 Alpha  occ. eigenvalues --   -0.49245  -0.48210  -0.47788  -0.47544  -0.47517
 Alpha  occ. eigenvalues --   -0.47118  -0.46463  -0.46381  -0.45938  -0.45901
 Alpha  occ. eigenvalues --   -0.45079  -0.44618  -0.44382  -0.43962  -0.43771
 Alpha  occ. eigenvalues --   -0.43616  -0.43441  -0.43147  -0.42781  -0.42657
 Alpha  occ. eigenvalues --   -0.42364  -0.42154  -0.41881  -0.41357  -0.41295
 Alpha  occ. eigenvalues --   -0.41115  -0.40949  -0.40570  -0.40476  -0.40385
 Alpha  occ. eigenvalues --   -0.40172  -0.39949  -0.39840  -0.39463  -0.39184
 Alpha  occ. eigenvalues --   -0.38798  -0.38437  -0.38270  -0.37790  -0.37730
 Alpha  occ. eigenvalues --   -0.37567  -0.37427  -0.37108  -0.36828  -0.35383
 Alpha  occ. eigenvalues --   -0.33159  -0.29574  -0.29293  -0.27263
 Alpha virt. eigenvalues --   -0.05186  -0.03830  -0.03299  -0.02864  -0.01630
 Alpha virt. eigenvalues --   -0.00249   0.00258   0.00549   0.01065   0.01365
 Alpha virt. eigenvalues --    0.02103   0.04188   0.05803   0.06343   0.07111
 Alpha virt. eigenvalues --    0.07404   0.08236   0.08301   0.08460   0.08571
 Alpha virt. eigenvalues --    0.08865   0.08924   0.09159   0.09579   0.10192
 Alpha virt. eigenvalues --    0.10428   0.10665   0.10949   0.11679   0.12150
 Alpha virt. eigenvalues --    0.12394   0.13071   0.13338   0.13554   0.14488
 Alpha virt. eigenvalues --    0.14597   0.15038   0.15398   0.15509   0.15708
 Alpha virt. eigenvalues --    0.16445   0.16602   0.17027   0.17227   0.17632
 Alpha virt. eigenvalues --    0.18075   0.18401   0.18502   0.18696   0.19296
 Alpha virt. eigenvalues --    0.19544   0.19743   0.19855   0.20202   0.20950
 Alpha virt. eigenvalues --    0.21346   0.21570   0.22369   0.22447   0.23135
 Alpha virt. eigenvalues --    0.23192   0.23793   0.24422   0.24996   0.25332
 Alpha virt. eigenvalues --    0.25552   0.25827   0.26329   0.26966   0.27286
 Alpha virt. eigenvalues --    0.27342   0.27515   0.28011   0.28372   0.28458
 Alpha virt. eigenvalues --    0.28941   0.29005   0.29790   0.30827   0.31522
 Alpha virt. eigenvalues --    0.32045   0.32313   0.32925   0.33182   0.35006
 Alpha virt. eigenvalues --    0.35547   0.36178   0.36891   0.38118   0.38563
 Alpha virt. eigenvalues --    0.39195   0.39391   0.39842   0.40702   0.41507
 Alpha virt. eigenvalues --    0.42106   0.42425   0.42885   0.43267   0.43497
 Alpha virt. eigenvalues --    0.44241   0.44489   0.44810   0.45110   0.45841
 Alpha virt. eigenvalues --    0.45999   0.46176   0.46804   0.47122   0.47237
 Alpha virt. eigenvalues --    0.47814   0.48050   0.48287   0.48587   0.48929
 Alpha virt. eigenvalues --    0.49381   0.49656   0.49921   0.50343   0.50548
 Alpha virt. eigenvalues --    0.50709   0.51006   0.51499   0.52475   0.52944
 Alpha virt. eigenvalues --    0.53245   0.53729   0.54223   0.54535   0.54675
 Alpha virt. eigenvalues --    0.55743   0.56089   0.56223   0.56567   0.57079
 Alpha virt. eigenvalues --    0.57876   0.58146   0.58312   0.58903   0.59066
 Alpha virt. eigenvalues --    0.59915   0.60353   0.61272   0.61415   0.61719
 Alpha virt. eigenvalues --    0.62234   0.62403   0.63560   0.63888   0.64313
 Alpha virt. eigenvalues --    0.64570   0.64999   0.65204   0.65514   0.65694
 Alpha virt. eigenvalues --    0.66583   0.66961   0.67204   0.67514   0.67693
 Alpha virt. eigenvalues --    0.67786   0.68061   0.68391   0.68681   0.68905
 Alpha virt. eigenvalues --    0.69114   0.69535   0.69667   0.70090   0.70366
 Alpha virt. eigenvalues --    0.70630   0.70699   0.70949   0.71110   0.71279
 Alpha virt. eigenvalues --    0.71837   0.71933   0.72459   0.72840   0.72996
 Alpha virt. eigenvalues --    0.73419   0.74039   0.74509   0.74630   0.75279
 Alpha virt. eigenvalues --    0.75386   0.75598   0.76214   0.76856   0.77290
 Alpha virt. eigenvalues --    0.77404   0.77853   0.78052   0.78641   0.79171
 Alpha virt. eigenvalues --    0.79924   0.80395   0.80783   0.81655   0.81759
 Alpha virt. eigenvalues --    0.82582   0.83434   0.84439   0.84618   0.85636
 Alpha virt. eigenvalues --    0.86126   0.86328   0.87038   0.87894   0.88084
 Alpha virt. eigenvalues --    0.88872   0.89794   0.90295   0.90524   0.90683
 Alpha virt. eigenvalues --    0.91254   0.91665   0.92170   0.92954   0.93338
 Alpha virt. eigenvalues --    0.93906   0.94543   0.95131   0.96109   0.96565
 Alpha virt. eigenvalues --    0.97186   0.97659   0.98041   0.98531   0.99294
 Alpha virt. eigenvalues --    0.99884   1.00175   1.00498   1.00687   1.01007
 Alpha virt. eigenvalues --    1.01821   1.02330   1.03040   1.04050   1.04565
 Alpha virt. eigenvalues --    1.04925   1.05890   1.06146   1.06685   1.07085
 Alpha virt. eigenvalues --    1.07490   1.08018   1.08583   1.09027   1.09646
 Alpha virt. eigenvalues --    1.10052   1.10306   1.10697   1.11453   1.11910
 Alpha virt. eigenvalues --    1.12412   1.12742   1.12793   1.13210   1.13764
 Alpha virt. eigenvalues --    1.13947   1.14653   1.14686   1.15127   1.15591
 Alpha virt. eigenvalues --    1.16136   1.16271   1.17253   1.17587   1.17959
 Alpha virt. eigenvalues --    1.18484   1.19060   1.19344   1.19881   1.20360
 Alpha virt. eigenvalues --    1.21035   1.21725   1.22255   1.22487   1.22700
 Alpha virt. eigenvalues --    1.23424   1.24150   1.24438   1.24652   1.25114
 Alpha virt. eigenvalues --    1.25367   1.25980   1.26164   1.26871   1.27453
 Alpha virt. eigenvalues --    1.27986   1.28243   1.28990   1.29490   1.29692
 Alpha virt. eigenvalues --    1.30528   1.30687   1.31077   1.31249   1.31637
 Alpha virt. eigenvalues --    1.32030   1.32318   1.32454   1.33082   1.33477
 Alpha virt. eigenvalues --    1.34266   1.34547   1.35066   1.35249   1.35974
 Alpha virt. eigenvalues --    1.36242   1.37043   1.37217   1.38226   1.38814
 Alpha virt. eigenvalues --    1.39547   1.40363   1.40610   1.41082   1.41248
 Alpha virt. eigenvalues --    1.41876   1.42230   1.42516   1.43223   1.43491
 Alpha virt. eigenvalues --    1.43897   1.44960   1.45358   1.45901   1.46051
 Alpha virt. eigenvalues --    1.46249   1.47645   1.47902   1.48452   1.48680
 Alpha virt. eigenvalues --    1.49387   1.49964   1.51018   1.51461   1.51733
 Alpha virt. eigenvalues --    1.52759   1.53224   1.53402   1.54062   1.54759
 Alpha virt. eigenvalues --    1.55448   1.55712   1.56270   1.57197   1.57358
 Alpha virt. eigenvalues --    1.57560   1.57849   1.58718   1.58818   1.59071
 Alpha virt. eigenvalues --    1.59553   1.60679   1.62113   1.62467   1.63244
 Alpha virt. eigenvalues --    1.63424   1.64224   1.65201   1.65494   1.65874
 Alpha virt. eigenvalues --    1.66294   1.67985   1.68232   1.68521   1.69315
 Alpha virt. eigenvalues --    1.69594   1.70388   1.70421   1.71251   1.71580
 Alpha virt. eigenvalues --    1.72209   1.72488   1.72543   1.73479   1.73647
 Alpha virt. eigenvalues --    1.74531   1.74758   1.75412   1.75485   1.76197
 Alpha virt. eigenvalues --    1.76547   1.76998   1.77462   1.77953   1.78161
 Alpha virt. eigenvalues --    1.78498   1.79125   1.80088   1.80222   1.80671
 Alpha virt. eigenvalues --    1.81088   1.81441   1.82789   1.82903   1.83078
 Alpha virt. eigenvalues --    1.84087   1.84445   1.85108   1.85276   1.85572
 Alpha virt. eigenvalues --    1.86049   1.86565   1.86885   1.87334   1.87550
 Alpha virt. eigenvalues --    1.87906   1.88460   1.89444   1.90076   1.90293
 Alpha virt. eigenvalues --    1.90637   1.90755   1.91185   1.91625   1.91997
 Alpha virt. eigenvalues --    1.92197   1.92651   1.92991   1.93655   1.94356
 Alpha virt. eigenvalues --    1.94608   1.94971   1.95877   1.96428   1.96792
 Alpha virt. eigenvalues --    1.97800   1.97917   1.98309   1.99081   1.99625
 Alpha virt. eigenvalues --    1.99888   2.00503   2.01171   2.01645   2.01946
 Alpha virt. eigenvalues --    2.02408   2.02668   2.02936   2.03606   2.03997
 Alpha virt. eigenvalues --    2.04618   2.05023   2.05611   2.06317   2.06974
 Alpha virt. eigenvalues --    2.08080   2.08513   2.09371   2.10793   2.11712
 Alpha virt. eigenvalues --    2.11930   2.12598   2.12906   2.13723   2.13848
 Alpha virt. eigenvalues --    2.14128   2.15567   2.16247   2.16729   2.17802
 Alpha virt. eigenvalues --    2.18704   2.20341   2.21354   2.22189   2.22797
 Alpha virt. eigenvalues --    2.23490   2.23906   2.24345   2.24835   2.25255
 Alpha virt. eigenvalues --    2.25851   2.26578   2.27446   2.29140   2.30027
 Alpha virt. eigenvalues --    2.30269   2.30597   2.32390   2.33226   2.34401
 Alpha virt. eigenvalues --    2.35282   2.36845   2.37148   2.38641   2.39351
 Alpha virt. eigenvalues --    2.40141   2.41104   2.42116   2.42450   2.45034
 Alpha virt. eigenvalues --    2.45392   2.46378   2.47689   2.50738   2.51054
 Alpha virt. eigenvalues --    2.54795   2.55721   2.55897   2.56683   2.57325
 Alpha virt. eigenvalues --    2.58092   2.58409   2.58827   2.59154   2.59726
 Alpha virt. eigenvalues --    2.59757   2.60253   2.60873   2.61443   2.61616
 Alpha virt. eigenvalues --    2.62275   2.62604   2.64047   2.64879   2.65018
 Alpha virt. eigenvalues --    2.65441   2.66361   2.66682   2.66778   2.67452
 Alpha virt. eigenvalues --    2.67757   2.68731   2.69160   2.69963   2.70813
 Alpha virt. eigenvalues --    2.71165   2.71523   2.71786   2.71923   2.72298
 Alpha virt. eigenvalues --    2.73970   2.74583   2.75241   2.76621   2.76919
 Alpha virt. eigenvalues --    2.77740   2.78430   2.78786   2.79474   2.79670
 Alpha virt. eigenvalues --    2.80647   2.80852   2.81024   2.81160   2.82564
 Alpha virt. eigenvalues --    2.83491   2.83729   2.84020   2.84743   2.85163
 Alpha virt. eigenvalues --    2.85942   2.86251   2.87402   2.88173   2.89157
 Alpha virt. eigenvalues --    2.90794   2.91219   2.91443   2.91907   2.92444
 Alpha virt. eigenvalues --    2.93069   2.93096   2.93887   2.94503   2.94847
 Alpha virt. eigenvalues --    2.95175   2.96586   2.97031   2.97513   2.97653
 Alpha virt. eigenvalues --    2.97809   2.98025   2.98661   2.98792   2.99687
 Alpha virt. eigenvalues --    3.00453   3.01141   3.01811   3.02013   3.02135
 Alpha virt. eigenvalues --    3.02333   3.02360   3.02436   3.02484   3.02578
 Alpha virt. eigenvalues --    3.02643   3.02711   3.03015   3.03082   3.03172
 Alpha virt. eigenvalues --    3.03342   3.03771   3.04021   3.04101   3.04678
 Alpha virt. eigenvalues --    3.05564   3.05892   3.06369   3.06908   3.09135
 Alpha virt. eigenvalues --    3.10188   3.11541   3.13250   3.14480   3.15083
 Alpha virt. eigenvalues --    3.15368   3.15452   3.15608   3.15965   3.16539
 Alpha virt. eigenvalues --    3.16581   3.17462   3.19078   3.20546   3.21615
 Alpha virt. eigenvalues --    3.22861   3.33021   3.33486   3.34211   3.36206
 Alpha virt. eigenvalues --    3.36548   3.36774   3.36942   3.37669   3.37776
 Alpha virt. eigenvalues --    3.38340   3.38902   3.39268   3.39816   3.43320
 Alpha virt. eigenvalues --    3.44649   3.50896   3.51787   3.51958   3.52581
 Alpha virt. eigenvalues --    3.52659   3.52987   3.54399   3.54513   3.57175
 Alpha virt. eigenvalues --    3.62948   3.63912   3.67683   3.67898   3.68405
 Alpha virt. eigenvalues --    3.80908   3.81933   3.82349   3.82725   3.83165
 Alpha virt. eigenvalues --    3.83837
          Condensed to atoms (all electrons):
 Mulliken charges:
               1
     1  C   -0.401868
     2  C    0.270388
     3  C    0.331038
     4  O   -0.251209
     5  O   -0.229920
     6  O   -0.184860
     7  O   -0.202018
     8  C    0.176095
     9  C    0.151858
    10  H    0.075883
    11  H    0.061449
    12  H    0.055624
    13  H    0.080800
    14  H    0.082874
    15  H    0.083233
    16  O   -0.440471
    17  O   -0.442890
    18  O   -0.425136
    19  S    0.897976
    20  S    0.870163
    21  S    0.865425
    22  O   -0.437626
    23  O   -0.377510
    24  O   -0.424258
    25  O   -0.379202
    26  O   -0.453258
    27  O   -0.396255
    28  C    0.448503
    29  C    0.455671
    30  C    0.437710
    31  F   -0.113518
    32  F   -0.109746
    33  F   -0.119739
    34  F   -0.103458
    35  F   -0.117359
    36  F   -0.115796
    37  F   -0.102653
    38  F   -0.116425
    39  F   -0.118874
    40  C    0.120773
    41  C   -0.237937
    42  C   -0.170269
    43  C   -0.154940
    44  C    0.027868
    45  C    0.001439
    46  C    0.000012
    47  H    0.021998
    48  H    0.051285
    49  H    0.035793
    50  N    0.143008
    51  N    0.113686
    52  N   -0.216114
    53  N   -0.032083
    54  C    0.269332
    55  H    0.049868
    56  C    0.195575
    57  H    0.070065
    58  H    0.057062
    59  Sc   0.274268
    60  H    0.079890
    61  C   -0.016783
    62  C   -0.025427
    63  C    0.018310
    64  C    0.002300
    65  H    0.001623
    66  C   -0.001583
    67  H   -0.003402
    68  C    0.018430
    69  H    0.003383
    70  H    0.010023
    71  H    0.011904
 Sum of Mulliken charges =  -0.00000
 Mulliken charges with hydrogens summed into heavy atoms:
               1
     1  C   -0.401868
     2  C    0.270388
     3  C    0.331038
     4  O   -0.251209
     5  O   -0.229920
     6  O   -0.184860
     7  O   -0.202018
     8  C    0.369051
     9  C    0.398765
    16  O   -0.440471
    17  O   -0.442890
    18  O   -0.425136
    19  S    0.897976
    20  S    0.870163
    21  S    0.865425
    22  O   -0.437626
    23  O   -0.377510
    24  O   -0.424258
    25  O   -0.379202
    26  O   -0.453258
    27  O   -0.396255
    28  C    0.448503
    29  C    0.455671
    30  C    0.437710
    31  F   -0.113518
    32  F   -0.109746
    33  F   -0.119739
    34  F   -0.103458
    35  F   -0.117359
    36  F   -0.115796
    37  F   -0.102653
    38  F   -0.116425
    39  F   -0.118874
    40  C    0.200664
    41  C   -0.237937
    42  C   -0.170269
    43  C   -0.154940
    44  C    0.049866
    45  C    0.052724
    46  C    0.035805
    50  N    0.143008
    51  N    0.113686
    52  N   -0.216114
    53  N   -0.032083
    54  C    0.319200
    56  C    0.322701
    59  Sc   0.274268
    61  C   -0.016783
    62  C   -0.023804
    63  C    0.014907
    64  C    0.005683
    66  C    0.008440
    68  C    0.030334
 APT charges:
               1
     1  C   -0.232998
     2  C    1.635200
     3  C    1.721162
     4  O   -1.299166
     5  O   -1.301150
     6  O   -1.069590
     7  O   -1.110374
     8  C    0.479551
     9  C    0.520761
    10  H    0.055892
    11  H    0.056382
    12  H    0.039568
    13  H    0.049947
    14  H    0.034577
    15  H    0.070272
    16  O   -1.239698
    17  O   -1.241275
    18  O   -1.224425
    19  S    2.550029
    20  S    2.528126
    21  S    2.499045
    22  O   -1.265501
    23  O   -0.980523
    24  O   -1.207072
    25  O   -0.963265
    26  O   -1.240017
    27  O   -0.990026
    28  C    1.943212
    29  C    1.886642
    30  C    1.918708
    31  F   -0.650433
    32  F   -0.661709
    33  F   -0.690538
    34  F   -0.641480
    35  F   -0.656882
    36  F   -0.663562
    37  F   -0.675375
    38  F   -0.675744
    39  F   -0.674167
    40  C    0.124573
    41  C    0.803063
    42  C    0.177650
    43  C    0.007793
    44  C    0.001229
    45  C    0.251661
    46  C   -0.140491
    47  H    0.104923
    48  H    0.047675
    49  H    0.080540
    50  N   -0.388170
    51  N   -0.342812
    52  N   -0.744208
    53  N   -0.219443
    54  C    0.350850
    55  H   -0.016791
    56  C    0.051522
    57  H    0.079447
    58  H    0.023011
    59  Sc   3.071084
    60  H   -0.000144
    61  C    0.004362
    62  C   -0.079952
    63  C   -0.091735
    64  C   -0.047391
    65  H    0.072202
    66  C   -0.026832
    67  H    0.089528
    68  C   -0.040563
    69  H    0.059714
    70  H    0.050292
    71  H    0.053311
 Sum of APT charges =   0.00000
 APT charges with hydrogens summed into heavy atoms:
               1
     1  C   -0.232998
     2  C    1.635200
     3  C    1.721162
     4  O   -1.299166
     5  O   -1.301150
     6  O   -1.069590
     7  O   -1.110374
     8  C    0.631393
     9  C    0.675558
    16  O   -1.239698
    17  O   -1.241275
    18  O   -1.224425
    19  S    2.550029
    20  S    2.528126
    21  S    2.499045
    22  O   -1.265501
    23  O   -0.980523
    24  O   -1.207072
    25  O   -0.963265
    26  O   -1.240017
    27  O   -0.990026
    28  C    1.943212
    29  C    1.886642
    30  C    1.918708
    31  F   -0.650433
    32  F   -0.661709
    33  F   -0.690538
    34  F   -0.641480
    35  F   -0.656882
    36  F   -0.663562
    37  F   -0.675375
    38  F   -0.675744
    39  F   -0.674167
    40  C    0.124428
    41  C    0.803063
    42  C    0.177650
    43  C    0.007793
    44  C    0.106152
    45  C    0.299336
    46  C   -0.059951
    50  N   -0.388170
    51  N   -0.342812
    52  N   -0.744208
    53  N   -0.219443
    54  C    0.334059
    56  C    0.153979
    59  Sc   3.071084
    61  C    0.004362
    62  C   -0.007750
    63  C   -0.002207
    64  C    0.012323
    66  C    0.023460
    68  C    0.012748
 Electronic spatial extent (au):  <R**2>=          30042.3802
 Charge=             -0.0000 electrons
 Dipole moment (field-independent basis, Debye):
    X=              3.9071    Y=             -5.3760    Z=              4.2834  Tot=              7.9066
 Quadrupole moment (field-independent basis, Debye-Ang):
   XX=           -386.4509   YY=           -309.0103   ZZ=           -337.0949
[...]
 7,-0.00000810,0.00000426,0.00000248,0.00000890,0.00000592,-0.00000859,
 0.00001668,-0.00000221,-0.00000092,-0.00000051,-0.00000022,-0.00000080
 ,-0.00000092,-0.00000049,-0.00000077,-0.00000119,-0.00000054,0.0000004
 9,0.00000923,-0.00000555,-0.00000470,0.00000978,-0.00001773,0.00003380
 ,0.00008343,0.00001513,-0.00014466,-0.00012905,-0.00010061,-0.00001242
 ,-0.00002381,0.00000746,0.00001141,-0.00000345,0.00001515,0.00007994,0
 .00013185,-0.00002708,0.00004318,0.00000922,0.00003619,0.00001379,0.00
 001960,0.00000260,0.00000431,0.00000592,-0.00000001,-0.00000641,0.0000
 0204,-0.00000504,-0.00000482,-0.00000195,-0.00000867,-0.00000045,0.000
 00380,0.00000547,-0.00000832,-0.00000190,0.00000712,-0.00063570,-0.000
 43269,0.00100200,-0.00000039,-0.00000169,-0.00000237,-0.00000076,-0.00
 000012,-0.00000190,0.00000010,-0.00000007,-0.00000215,0.00000376,0.000
 00001,-0.00000260,0.00000535,0.00000321,-0.00000287,0.00000136,0.00000
 021,-0.00000155,-0.00019081,0.00014596,-0.00014642,0.00017224,-0.00008
 116,-0.00018597,-0.00027664,0.00038602,-0.00099448,0.00048739,-0.00076
 763,0.00033605,-0.00004137,-0.00010602,-0.00028838,-0.00005111,0.00002
 136,0.00001414,0.00008124,-0.00007078,0.00007794,-0.00000542,0.0000017
 6,-0.00000246,0.00000411,-0.00001304,0.00000033,0.00000251,-0.00000263
 ,-0.00000141,0.00000007,-0.00000027,0.00000179,-0.00000007,-0.00000171
 ,0.00000272,-0.00000051,-0.00000073,0.00000133,0.00003986,0.00000252,-
 0.00001112,-0.00002311,-0.00000095,-0.00005720,0.00003725,0.00001072,-
 0.00001096,-0.00002448,0.00000266,0.00001066,0.00001690,0.00001190,0.0
 0000912,0.00000068,0.00000212,-0.00000210,0.00010027,0.00004518,0.0000
 3248,-0.00001404,0.00001069,0.00001471,-0.00002528,-0.00001728,-0.0000
 1144,0.00003287,-0.00010101,0.00002457,0.00001202,0.00004458,-0.000014
 75,-0.00290842,-0.00372850,-0.00176576,0.01092904,-0.02107711,0.004551
 16,-0.00006069,-0.00001435,-0.00096198,-0.01138883,0.00820470,-0.05320
 172,0.00168677,0.00148824,0.00015594,-0.00483763,-0.00055563,-0.002049
 45,0.00039312,0.00018507,-0.00009306,-0.01217112,0.02134500,0.00364050
 ,0.01681048,-0.00653881,0.04976691,-0.00001693,-0.00002303,0.00002115,
 0.00000202,0.00006233,-0.00009481,0.00002574,0.00002297,0.00001556,-0.
 00001955,-0.00000221,0.00000069,-0.00002876,-0.00002375,0.00003837,0.0
 0000010,-0.00002746,0.00008726,-0.00001135,-0.00001761,-0.00000749,0.0
 0008712,0.00006095,-0.00016073,0.00000664,0.00000490,0.00000166,-0.000
 03838,-0.00010058,0.00002824,0.00002767,0.00001428,0.00004683,-0.00000
 541,0.00003123,-0.00003841,-0.00000045,-0.00000051,-0.00000089,-0.0000
 0094,-0.00000069,-0.00000022,-0.00000075,-0.00000024,-0.00000097,-0.00
 000358,-0.00000273,0.00000426,0.00000013,-0.00000690,0.00001994,-0.000
 02291,0.00000006,0.00000426,0.00003590,0.00000293,-0.00001359,0.000008
 14,0.00000702,-0.00000490,-0.00001250,0.00000275,-0.00005324,-0.000012
 63,-0.00001060,0.00001377,-0.00000925,0.00000198,-0.00000026,-0.000007
 10,-0.00000449,0.00000053,-0.00000203,-0.00000112,0.00000164,-0.000008
 26,-0.00000648,0.00002369,0.00001731,0.00000530,0.00002223,-0.00000350
 ,-0.00000281,-0.00000579,0.00000302,-0.00000070,-0.00000648,0.00006006
 ,0.00000553,-0.00004194,0.00000133,0.00000398,0.00000426,0.00000298,-0
 .00000032,0.00000154,0.00000007,-0.00000134,0.00000415,-0.00000076,0.0
 0000127,0.00000330,-0.00000217,-0.00000098,0.00000173,-0.00000056,-0.0
 0000006,0.00000140,-0.00002092,-0.00000259,0.00000461,-0.00001360,0.00
 001029,0.00001396,-0.00003156,-0.00001915,0.00001557,0.00006687,0.0001
 3193,-0.00011848,-0.00006531,0.00004645,0.00004324,-0.00006343,0.00003
 255,0.00003150,-0.00000041,0.00000275,0.00002357,-0.00000383,0.0000054
 7,0.00000077,0.00001280,-0.00002114,0.00000964,0.00000354,-0.00000210,
 -0.00000162,-0.00000133,-0.00000020,0.00000026,0.00000032,-0.00000154,
 0.00000367,-0.00000080,-0.00000391,0.00000082,0.00000886,0.00000670,0.
 00002269,-0.00000255,-0.00000845,-0.00001580,0.00002536,-0.00015513,-0
 .00007310,-0.00006361,0.00004708,-0.00000919,0.00002665,0.00000893,-0.
 00000028,-0.00000892,-0.00000045,-0.00000628,0.00008444,0.00007675,-0.
 00001851,-0.00000672,0.00000329,0.00001306,-0.00002236,0.00000993,0.00
 000479,0.00002937,0.00001358,-0.00002540,0.00000979,-0.00010697,-0.000
 08339,0.00476641,0.00185439,-0.00196341,-0.00032975,-0.00048317,0.0005
 9745,0.00371849,0.00247898,0.00023898,0.00394369,0.00466178,-0.0014033
 1,-0.00061150,-0.00034289,0.00027713,-0.13783800,0.04501202,-0.1372684
 5,-0.00268327,-0.00151287,0.00171342,-0.00231997,0.00194480,-0.0119194
 7,-0.00028469,0.00002929,-0.00047484,0.13397521,-0.00002364,-0.0000088
 2,0.00001929,0.00000428,0.00001113,-0.00008272,0.00002323,0.00001647,0
 .00001418,-0.00001581,0.00000138,0.00000124,-0.00000703,0.00000216,0.0
 0002622,0.00000642,-0.00001257,0.00003826,-0.00000683,-0.00001364,-0.0
 0000592,0.00003055,0.00000790,-0.00008568,0.00000346,0.00000250,0.,0.0
 0001604,-0.00000350,0.00002214,0.00001362,0.00000862,0.00002454,0.0000
 1551,0.00002869,0.00000595,-0.00000055,-0.00000037,-0.00000075,-0.0000
 0069,-0.00000073,-0.00000007,-0.00000055,-0.00000014,-0.00000057,0.000
 00082,0.00000043,0.00000222,0.00000200,-0.00000286,0.00000389,-0.00000
 022,0.00001586,0.00000905,-0.00002272,-0.00002373,-0.00002253,-0.00000
 142,-0.00000099,-0.00000259,-0.00001172,0.00000435,-0.00001692,0.00000
 977,0.00001609,0.00000015,0.00001051,-0.00000002,0.00001053,0.00000128
 ,0.00000185,0.00000204,0.00000061,0.00000049,0.00000121,0.00000051,-0.
 00000328,0.00000784,0.00001068,0.00000070,0.00000676,-0.00000558,0.000
 00026,-0.00000004,-0.00000181,0.00000054,-0.00000082,-0.00011222,-0.00
 000419,0.00002397,0.00000147,0.00000111,0.00000093,0.00000344,-0.00000
 095,0.00000031,0.00000114,-0.00000028,0.00000065,0.00000075,0.00000024
 ,0.00000049,0.00000053,0.00000008,-0.00000006,0.00000068,-0.00000056,0
 .00000042,0.00004526,-0.00000409,-0.00000336,0.00002116,-0.00001172,-0
 .00001163,0.00008105,0.00001483,0.00000380,-0.00041291,0.00040094,-0.0
 0059547,-0.00005624,0.00008226,0.00003611,-0.00006463,0.00001510,0.000
 01494,0.00000250,-0.00000564,0.00000893,-0.00000284,0.00001010,-0.0000
 0335,0.00000194,-0.00003063,0.00000996,0.00000564,-0.00000494,0.000005
 43,-0.00000147,-0.00000102,0.00000045,0.00000022,-0.00000320,0.0000022
 6,-0.00000084,-0.00000427,-0.00000098,0.00001174,0.00001078,0.00003500
 ,-0.00000302,-0.00000414,-0.00001260,0.00003349,-0.00006504,-0.0000189
 3,-0.00002214,0.00002503,0.00001357,0.00000287,0.00000514,-0.00000057,
 -0.00000177,0.00000053,0.00000022,0.00009150,0.00001159,-0.00012396,-0
 .00000830,-0.00000054,0.00000892,-0.00005829,-0.00002591,-0.00000096,0
 .00000835,-0.00001566,-0.00001274,-0.00000247,-0.00010751,-0.00014078,
 0.00178316,-0.00075953,-0.00425355,-0.00015536,-0.00111114,-0.00033672
 ,-0.01059038,0.00770368,-0.01676599,0.00436074,-0.00294648,-0.00146575
 ,-0.00030803,-0.00007548,0.00022440,0.04558507,-0.07176680,0.05523116,
 -0.00168335,0.00027482,0.00138886,0.01472242,-0.00099841,0.02137636,0.
 00064907,-0.00013236,0.00096267,-0.05179600,0.06892447,-0.00003900,0.0
 0000792,0.00000308,0.00010557,0.00002568,-0.00004353,0.00007713,0.0000
 6369,0.00004388,-0.00004556,-0.00000506,-0.00000869,-0.00004372,0.0000
 0758,0.00000952,-0.00003797,-0.00001453,0.00007877,-0.00002678,-0.0000
 5459,-0.00002475,-0.00003430,0.00000628,-0.00004812,0.00001701,0.00001
 248,0.00000628,-0.00006020,-0.00001165,-0.00001327,-0.00000233,-0.0000
 1012,-0.00000070,-0.00000277,-0.00002467,0.00000362,-0.00000147,-0.000
 00168,-0.00000147,-0.00000260,-0.00000149,-0.00000050,-0.00000202,-0.0
 0000011,-0.00000204,-0.00001706,-0.00000500,-0.00000572,-0.00000948,-0
 .00001195,0.00001399,-0.00002368,0.00001251,-0.00000097,0.00004328,-0.
 00001572,0.00000356,0.00002397,0.00000933,0.00001192,0.00001794,0.0000
 1820,-0.00003214,-0.00001544,0.00000063,0.00000511,-0.00001559,0.00001
 106,-0.00000847,-0.00001751,-0.00000547,-0.00000726,-0.00000600,-0.000
 00394,-0.00000495,-0.00001955,-0.00001459,0.00002092,-0.00000302,-0.00
 000815,0.00000967,0.00001179,0.00001365,-0.00000244,0.00001202,-0.0000
 0086,-0.00000239,0.00006108,-0.00003028,0.00000356,-0.00000284,-0.0000
 0526,-0.00000126,-0.00000583,-0.00000166,0.00000036,-0.00000412,-0.000
 00660,0.00000559,-0.00000326,-0.00000015,0.00000020,-0.00000530,-0.000
 00268,0.00000207,-0.00000416,0.00000246,-0.00000089,-0.00003696,0.0000
 1460,-0.00000728,-0.00001457,0.00001503,0.00000856,-0.00002795,0.00000
 570,-0.00000316,-0.00051877,0.00055655,-0.00018363,-0.00005277,0.00012
 171,0.00001143,-0.00005607,0.00003334,0.00002115,0.00001183,-0.0000222
 6,0.00004751,-0.00000163,0.00000985,-0.00000760,-0.00000445,-0.0000367
 8,0.00001412,0.00001158,-0.00000949,0.00000290,-0.00000010,0.00000191,
 0.00000109,0.00000055,-0.00000506,0.00000458,-0.00000041,-0.00000367,0
 .00000147,0.00005078,-0.00001217,-0.00002803,-0.00000239,-0.00000881,-
 0.00003635,0.00007365,-0.00005189,-0.00000902,-0.00004417,0.00004508,0
 .00001425,0.00000242,0.00002231,0.00001677,0.00000037,-0.00000035,-0.0
 0000306,0.00009191,-0.00009400,-0.00022881,0.00001710,-0.00000412,0.00
 001752,-0.00009393,-0.00007439,-0.00001633,0.00007665,0.00000625,-0.00
 000358,-0.00003250,-0.00007552,-0.00013854,-0.00172333,-0.00437485,-0.
 00054189,0.00072774,-0.00017658,0.00018020,-0.01297961,0.00697486,-0.0
 1236449,-0.00193793,-0.00117664,0.00235717,0.00026791,0.00022163,-0.00
 021764,-0.13682157,0.05539441,-0.24066365,0.00188960,0.00121581,0.0001
 1340,0.00099535,-0.00323427,0.00386996,0.00006559,-0.00011260,0.000023
 46,0.14859233,-0.05619451,0.24818439,0.00002171,0.00000459,-0.00000209
 ,-0.00002487,0.00003977,-0.00007963,0.00000250,0.00000415,-0.00000904,
 -0.00000598,0.00000049,0.00001001,0.00000071,-0.00001806,0.00002221,0.
 00002990,0.00002381,0.00007120,0.00000045,0.00000040,0.00000156,0.0000
 3731,-0.00004858,-0.00001051,-0.00000063,-0.00000060,-0.00000116,-0.00
 000023,-0.00000863,0.00000219,-0.00000090,0.00000874,0.00000092,-0.000
 00518,0.00003065,-0.00004067,0.,0.00000013,-0.00000012,0.00000041,0.,-
 0.00000004,-0.00000004,-0.00000046,-0.00000025,0.00000290,0.00000095,0
 .00000634,0.00000193,0.00000884,0.00000940,-0.00002161,0.00001009,0.00
 001578,0.00001607,-0.00001563,-0.00004215,-0.00000152,-0.00000134,-0.0
 0001048,-0.00000587,-0.00001888,-0.00002266,-0.00000254,0.00000236,0.0
 0001876,0.00000239,0.00000136,0.00001230,0.00000105,0.00000066,0.00000
 533,0.00000049,0.00000180,0.00000466,-0.00000223,0.00000348,0.00001091
 ,0.00000714,0.00000932,0.00001026,-0.00000572,-0.00000985,-0.00000434,
 -0.00000255,-0.00000383,-0.00000722,0.00002198,0.00000633,-0.00011329,
 0.00000176,0.00000611,0.00000428,0.00000240,0.00000173,0.00000083,0.00
 000150,0.00000267,0.00000023,0.00000085,0.00000285,0.00000500,0.000000
 76,0.00000128,0.00000097,0.00000090,-0.00000032,0.00000204,-0.00000647
 ,-0.00001565,0.00004494,-0.00000048,0.00001537,0.00002980,-0.00004447,
 0.00000457,0.00002092,-0.00052580,-0.00043541,0.00027423,-0.00003531,-
 0.00002482,-0.00008799,0.00000614,0.00001432,0.00001077,-0.00001032,0.
 00000285,-0.00000040,0.00000364,-0.00000278,-0.00000365,-0.00000075,0.
 00001541,-0.00000973,-0.00000446,-0.00000111,0.00000654,-0.00000041,-0
 .00000150,-0.00000137,0.00000014,-0.00000013,-0.00000250,0.00000102,-0
 .00000012,-0.00000045,0.00001715,-0.00001201,-0.00000102,0.00000011,0.
 00000050,0.00000280,0.00000747,0.00015354,0.00006356,0.00003841,-0.000
 05518,0.00001968,-0.00002435,-0.00000215,0.00000910,0.00000722,0.00000
 567,0.00000492,-0.00000534,-0.00000159,-0.00008017,0.00000736,0.000021
 26,0.00000285,-0.00002817,0.00000045,-0.00000820,0.00000151,-0.0000050
 7,-0.00002896,0.00004554,-0.00002149,0.00012158,-0.00088923,0.00015196
 ,0.00011656,0.00273771,0.00345987,-0.00457847,0.00343653,0.00461440,-0
 .00253565,0.00327901,-0.01108971,-0.01327699,-0.00001791,-0.00056075,-
 0.00055114,0.00582149,0.01003995,0.01097253,0.00004288,0.00033390,0.00
 054866,-0.04854787,-0.01102098,-0.02461073,-0.00216596,-0.00163119,0.0
 0233858,-0.00236976,-0.00218466,0.00155551,0.03914852,0.00000067,0.000
 00548,0.00000299,0.00008159,0.00000862,-0.00000626,0.00003647,0.000019
 86,0.00001384,-0.00002778,0.00000256,-0.00000128,-0.00004627,0.0000180
 2,0.00001085,-0.00006290,-0.00000069,0.00007371,-0.00001625,-0.0000184
 7,-0.00000938,0.00002577,-0.00005107,-0.00007366,0.00000845,0.00000616
 ,0.00000353,0.00000456,-0.00000890,-0.00000176,-0.00000442,-0.00000185
 ,0.00000082,-0.00000273,0.00000898,-0.00003945,-0.00000058,-0.00000064
 ,-0.00000071,-0.00000114,-0.00000060,-0.00000036,-0.00000114,-0.000000
 45,-0.00000123,-0.00000581,-0.00000170,0.00000196,-0.00000358,0.000000
 16,0.00001650,-0.00001261,0.00000515,0.00000434,0.00002377,0.00000073,
 -0.00001180,0.00000939,0.00000369,-0.00000179,0.00000601,-0.00000538,-
 0.00004174,-0.00000945,-0.00000474,0.00001265,-0.00000557,0.00000080,0
 .00000160,-0.00000695,-0.00000237,-0.00000031,-0.00000220,-0.00000056,
 0.00000092,-0.00001407,-0.00000354,0.00002105,0.00000435,0.00000353,0.
 00001687,0.00000154,-0.00000110,-0.00000609,0.00000346,-0.00000185,-0.
 00000652,0.00004992,0.00003321,-0.00005896,-0.00000003,0.00000266,0.00
 000344,-0.00000072,0.00000036,0.00000116,-0.00000112,-0.00000173,0.000
 00407,-0.00000083,0.00000157,0.00000346,-0.00000199,-0.00000064,0.0000
 0171,-0.00000096,0.00000045,0.00000121,-0.00002467,-0.00001626,0.00002
 950,-0.00000558,0.00000125,0.00001281,-0.00005413,-0.00001673,0.000010
 93,-0.00032802,-0.00013228,0.00012179,-0.00002150,0.00006013,0.0001236
 2,-0.00002856,0.00006358,0.00009027,-0.00000789,0.00000148,0.00002577,
 -0.00000477,0.00000404,0.00000037,0.00000438,-0.00001881,0.00000749,0.
 00000664,-0.00000105,-0.00000362,0.,0.00000061,0.00000106,-0.00000019,
 -0.00000240,0.00000289,-0.00000126,-0.00000193,0.00000189,0.00004686,-
 0.00002643,-0.00005979,-0.00000285,-0.00000744,-0.00001743,0.00001189,
 -0.00011761,-0.00010244,-0.00007460,0.00006207,-0.00000230,0.00004213,
 0.00000986,0.00000818,-0.00001214,-0.00000148,-0.00000962,0.00002445,0
 .00000464,-0.00007282,-0.00001513,0.00000071,0.00000002,-0.00003632,-0
 .00000960,-0.00000876,0.00003693,-0.00000028,-0.00001809,0.00002133,-0
 .00002593,0.00001571,0.00016728,-0.00034822,0.00086370,0.00294896,0.00
 189181,0.00039029,0.00483518,-0.00220754,-0.00005721,0.00241211,0.0083
 3692,0.00745733,0.00005968,0.00020768,0.00034942,-0.00343790,-0.010456
 76,-0.02069897,-0.00016577,-0.00057001,-0.00090778,-0.01084692,-0.1788
 7419,-0.14889846,-0.00184910,-0.00028806,0.00046311,-0.00191328,0.0005
 5103,0.00107367,0.00818592,0.18191147,-0.00002210,-0.00001087,-0.00000
 036,0.00005134,0.00003767,0.00000524,0.00004241,0.00003719,0.00002872,
 -0.00002430,-0.00000567,-0.00000899,-0.00006900,-0.00001311,0.00000104
 ,-0.00002253,-0.00000290,0.00000262,-0.00001650,-0.00003150,-0.0000149
 7,-0.00000795,0.00000877,-0.00001950,0.00001102,0.00000800,0.00000473,
 0.00000405,0.00000853,-0.00000299,-0.00000188,-0.00000776,-0.00000119,
 0.00001832,-0.00003433,-0.00000612,-0.00000074,-0.00000102,-0.00000060
 ,-0.00000150,-0.00000064,-0.00000037,-0.00000099,-0.00000008,-0.000001
 07,-0.00001455,-0.00000281,-0.00000618,-0.00001086,-0.00000412,0.00000
 937,-0.00004181,0.00002105,0.00000357,0.00005283,-0.00004195,-0.000015
 81,0.00002009,0.00000434,0.00000977,0.00002352,0.00000694,-0.00002007,
 -0.00001388,0.00000993,0.00000927,-0.00001299,0.00001643,-0.00000307,-
 0.00001485,-0.00000309,-0.00000626,-0.00000512,-0.00000212,-0.00000366
 ,-0.00001881,-0.00001000,0.00001394,-0.00000759,-0.00000447,0.00000444
 ,0.00001303,0.00000806,-0.00000157,0.00001023,-0.00000415,-0.00000290,
 0.00005005,-0.00006745,-0.00003577,-0.00000307,-0.00000365,-0.00000090
 ,-0.00000732,0.00000002,0.00000005,-0.00000390,-0.00000432,0.00000361,
 -0.00000281,0.00000119,0.00000128,-0.00000398,-0.00000103,0.00000165,-
 0.00000404,0.00000315,-0.00000089,-0.00002457,0.00002495,-0.00000059,-
 0.00001656,0.00003271,0.00002209,-0.00000431,0.00002103,0.00001629,0.0
 0034122,0.00019134,-0.00008766,-0.00000192,0.00000016,-0.00002049,-0.0
 0001189,-0.00000660,-0.00002932,0.00002458,-0.00002169,0.00001945,0.00
 000103,0.00000167,-0.00000216,0.00000047,-0.00001418,0.00000614,0.0000
 0465,-0.00000349,-0.00000249,0.00000071,0.00000239,0.00000074,0.000000
 40,-0.00000064,0.00000332,0.00000013,-0.00000050,0.00000174,-0.0000079
 7,0.00000357,0.00000557,-0.00000386,-0.00000345,-0.00001989,0.00002913
 ,-0.00008890,-0.00002167,-0.00003394,0.00002508,-0.00001075,0.00000601
 ,0.00000814,0.00000946,-0.00000138,-0.00000165,-0.00000371,0.00001593,
 0.00001386,0.00002183,0.00004247,-0.00000199,0.00002079,0.00000805,-0.
 00002457,0.00000042,0.00007259,0.00000406,0.00000728,-0.00003245,0.000
 01328,-0.00005566,0.00005146,0.00083010,-0.00006053,-0.00489781,0.0005
 1989,-0.00098977,-0.00243851,-0.00049357,0.00245844,-0.00026212,-0.016
 60506,-0.01131242,0.00002833,-0.00068660,-0.00065253,-0.00179767,0.003
 59679,0.00518637,-0.00003846,0.00018990,0.00006600,-0.02468661,-0.1488
 1842,-0.22413486,0.00204934,0.00089090,0.00023399,0.00185730,0.0006151
 8,-0.00044940,0.02976239,0.15987210,0.22982793\\-0.00000390,0.00000461
 ,0.00000382,0.00000769,-0.00000818,0.00000596,0.00000296,-0.00000133,-
 0.00000863,-0.00000136,0.00000892,-0.00000855,-0.00000808,-0.00000522,
 0.00000119,-0.00000433,0.00000334,-0.00000183,0.00000103,0.00001160,-0
 .00000927,-0.00000028,-0.00000710,0.00000039,0.00000421,0.00000728,-0.
 00000731,-0.00000206,-0.00000760,0.00000106,-0.00000039,-0.00000590,0.
 00000044,-0.00000107,-0.00000562,0.00000269,-0.00000017,0.00000407,-0.
 00000894,0.00000079,0.00000556,-0.00000467,-0.00000060,0.00000199,-0.0
 0000610,-0.00000498,0.00000097,-0.00000011,-0.00000462,-0.00000492,-0.
 00000039,0.00000532,0.00001347,-0.00000125,0.00000871,-0.00000214,0.00
 000957,-0.00000576,0.00000611,0.00000025,-0.00000014,-0.00000337,-0.00
 000059,0.00000091,-0.00000343,-0.00000503,-0.00000424,0.00000576,0.000
 00379,0.00000129,-0.00000023,0.00000797,0.00000094,0.00001176,-0.00000
 326,-0.00000190,-0.00001329,0.00000377,-0.00000410,-0.00000398,-0.0000
 0789,0.00001358,-0.00001429,-0.00001000,0.00000694,-0.00001214,0.00000
 687,0.00000245,0.00000181,-0.00000306,-0.00000412,-0.00000056,-0.00000
 010,-0.00000982,0.00000588,-0.00000830,-0.00000214,-0.00000416,-0.0000
 0795,-0.00000146,-0.00000066,-0.00000290,0.00000302,0.00000913,-0.0000
 0414,-0.00000249,0.00000682,-0.00000952,0.00000348,-0.00000516,0.00000
 981,-0.00000217,-0.00000106,0.00001006,-0.00000256,-0.00000033,0.00001
 590,-0.00000039,-0.00000235,-0.00000197,-0.00000525,0.00000346,0.00000
 550,0.00000257,0.00000333,0.00000207,0.00000135,0.00000354,-0.00000358
 ,0.00000458,0.00000078,-0.00000815,0.00000052,-0.00000056,-0.00000291,
 -0.00000241,-0.00000243,-0.00000611,0.00000012,-0.00000077,-0.00000645
 ,-0.00000091,-0.00000241,-0.00000661,-0.00000236,-0.00000326,-0.000007
 37,-0.00000018,0.00000095,0.00000212,0.00000149,0.00000740,-0.00000031
 ,0.00000639,-0.00000937,-0.00000329,-0.00000513,0.00000483,-0.00000284
 ,0.00000141,-0.00000024,-0.00000157,-0.00000242,0.00000175,-0.00000357
 ,0.00000505,0.00000344,0.00000454,0.00000079,0.00000502,0.00000241,-0.
 00000061,0.00000561,-0.00000235,0.00000221,0.00000500,0.00000027,0.000
 00120,0.00000302,0.00000307,-0.00000034,0.00000264,0.00000633,-0.00000
 017,-0.00000323,0.00000531,0.00000091,-0.00000221,0.00000263,-0.000000
 15,-0.00000156,0.00001015,0.00000013,0.00000323,0.00000780,-0.00000050
 ,-0.00000380,0.00000519,0.00000074,-0.00000160,0.00000337,0.00000011,-
 0.00000410,0.00000770,0.00000209,-0.00000236,0.00000930,-0.00000063,-0
 .00000636,0.00000585,-0.00000082,-0.00000584,0.00000974\\\@


    THE DOUGHNUT CREED
 AS YOU RAMBLE ON THROUGH LIFE, BROTHER
 WHATEVER BE YOUR GOAL
 KEEP YOUR EYE UPON THE DOUGHNUT
 AND NOT UPON THE HOLE.
 Job cpu time:       2 days 15 hours 48 minutes  7.0 seconds.
 Elapsed time:       0 days  2 hours 44 minutes 15.2 seconds.
 File lengths (MBytes):  RWF=   6936 Int=      0 D2E=      0 Chk=     72 Scr=      8
 Normal termination of Gaussian 16 at Thu Jan 30 09:12:27 2025.
