 Entering Gaussian System, Link 0=/sysapps/ubuntu-applications/gaussian-new/avx/g16//g16
 Input=i2.in
 Output=i2.log
 Initial command:
 /sysapps/ubuntu-applications/gaussian-new/avx/g16/l1.exe "/data/temp-scratch/selhajj1/306804/Gau-1573587.inp" -scrdir="/data/temp-scratch/selhajj1/306804/"
 Entering Link 1 = /sysapps/ubuntu-applications/gaussian-new/avx/g16/l1.exe PID=   1573589.
  
 Copyright (c) 1988,1990,1992,1993,1995,1998,2003,2009,2016,
            Gaussian, Inc.  All Rights Reserved.
  
 This is part of the Gaussian(R) 16 program.  It is based on
 the Gaussian(R) 09 system (copyright 2009, Gaussian, Inc.),
 the Gaussian(R) 03 system (copyright 2003, Gaussian, Inc.),
 the Gaussian(R) 98 system (copyright 1998, Gaussian, Inc.),
 the Gaussian(R) 94 system (copyright 1995, Gaussian, Inc.),
 the Gaussian 92(TM) system (copyright 1992, Gaussian, Inc.),
 the Gaussian 90(TM) system (copyright 1990, Gaussian, Inc.),
 the Gaussian 88(TM) system (copyright 1988, Gaussian, Inc.),
 the Gaussian 86(TM) system (copyright 1986, Carnegie Mellon
 University), and the Gaussian 82(TM) system (copyright 1983,
 Carnegie Mellon University). Gaussian is a federally registered
 trademark of Gaussian, Inc.
  
 This software contains proprietary and confidential information,
 including trade secrets, belonging to Gaussian, Inc.
  
 This software is provided under written license and may be
 used, copied, transmitted, or stored only in accord with that
 written license.
  
 The following legend is applicable only to US Government
 contracts under FAR:
  
                    RESTRICTED RIGHTS LEGEND
  
 Use, reproduction and disclosure by the US Government is
 subject to restrictions as set forth in subparagraphs (a)
 and (c) of the Commercial Computer Software - Restricted
 Rights clause in FAR 52.227-19.
  
 Gaussian, Inc.
 340 Quinnipiac St., Bldg. 40, Wallingford CT 06492
  
  
 ---------------------------------------------------------------
 Warning -- This program may not be used in any manner that
 competes with the business of Gaussian, Inc. or will provide
 assistance to any competitor of Gaussian, Inc.  The licensee
 of this program is prohibited from giving any competitor of
 Gaussian, Inc. access to this program.  By using this program,
 the user acknowledges that Gaussian, Inc. is engaged in the
 business of creating and licensing software in the field of
 computational chemistry and represents and warrants to the
 licensee that it is not a competitor of Gaussian, Inc. and that
 it will not use this program in any manner prohibited above.
 ---------------------------------------------------------------
  

 Cite this work as:
 Gaussian 16, Revision A.03,
 M. J. Frisch, G. W. Trucks, H. B. Schlegel, G. E. Scuseria, 
 M. A. Robb, J. R. Cheeseman, G. Scalmani, V. Barone, 
 G. A. Petersson, H. Nakatsuji, X. Li, M. Caricato, A. V. Marenich, 
 J. Bloino, B. G. Janesko, R. Gomperts, B. Mennucci, H. P. Hratchian, 
 J. V. Ortiz, A. F. Izmaylov, J. L. Sonnenberg, D. Williams-Young, 
 F. Ding, F. Lipparini, F. Egidi, J. Goings, B. Peng, A. Petrone, 
 T. Henderson, D. Ranasinghe, V. G. Zakrzewski, J. Gao, N. Rega, 
 G. Zheng, W. Liang, M. Hada, M. Ehara, K. Toyota, R. Fukuda, 
 J. Hasegawa, M. Ishida, T. Nakajima, Y. Honda, O. Kitao, H. Nakai, 
 T. Vreven, K. Throssell, J. A. Montgomery, Jr., J. E. Peralta, 
 F. Ogliaro, M. J. Bearpark, J. J. Heyd, E. N. Brothers, K. N. Kudin, 
 V. N. Staroverov, T. A. Keith, R. Kobayashi, J. Normand, 
 K. Raghavachari, A. P. Rendell, J. C. Burant, S. S. Iyengar, 
 J. Tomasi, M. Cossi, J. M. Millam, M. Klene, C. Adamo, R. Cammi, 
 J. W. Ochterski, R. L. Martin, K. Morokuma, O. Farkas, 
 J. B. Foresman, and D. J. Fox, Gaussian, Inc., Wallingford CT, 2016.
 
 ******************************************
 Gaussian 16:  ES64L-G16RevA.03 25-Dec-2016
                 1-May-2025 
 ******************************************
 %chk=i2.chk
 %mem=616Gb
 %nprocshared=24
 Will use up to   24 processors via shared memory.
 ----------------------------------------------------------------------
 #P MN15/genecp scf=(maxcyc=500) opt freq scrf=(smd,solvent=DiChloroEth
 ane)
 ----------------------------------------------------------------------
 1/18=20,19=15,26=3,38=1/1,3;
 2/9=110,12=2,17=6,18=5,40=1/2;
 3/5=7,11=2,16=1,17=8,25=1,30=1,70=32201,71=1,72=10,74=-73/1,2,3;
 4//1;
 5/5=2,7=500,38=5,53=10/2;
 6/7=2,8=2,9=2,10=2,28=1/1;
 7//1,2,3,16;
 1/18=20,19=15,26=3/3(2);
 2/9=110/2;
 99//99;
 2/9=110/2;
 3/5=7,6=1,11=2,16=1,17=8,25=1,30=1,70=32205,71=1,72=10,74=-73,82=7/1,2,3;
 4/5=5,16=3,69=1/1;
 5/5=2,7=500,38=5,53=10/2;
 7//1,2,3,16;
 1/18=20,19=15,26=3/3(-5);
 2/9=110/2;
 6/7=2,8=2,9=2,10=2,19=2,28=1/1;
 99/9=1/99;
 Leave Link    1 at Thu May  1 00:13:27 2025, MaxMem= 82678120448 cpu:               4.7 elap:               0.2
 (Enter /sysapps/ubuntu-applications/gaussian-new/avx/g16/l101.exe)
 ---
 Opt
 ---
 Symbolic Z-matrix:
 Charge =  0 Multiplicity = 1
 C                    -5.65056   0.52222  -0.23323 
 C                    -6.46687   0.32642  -1.35365 
 C                    -7.69671   0.97931  -1.44491 
 C                    -8.11048   1.8345   -0.42036 
 C                    -7.2923    2.03845   0.69391 
 C                    -6.06268   1.38517   0.79024 
 C                    -2.06149   0.40745   0.38122 
 C                    -1.48007   0.77351  -0.85724 
 C                    -1.29107  -0.0376    1.47598 
 H                    -6.13294  -0.3361   -2.15711 
 H                    -8.32888   0.82634  -2.32211 
 H                    -9.07093   2.34963  -0.49401 
 H                    -7.61048   2.71346   1.49131 
 H                    -5.41161   1.55135   1.65107 
 O                    -0.039    -0.19604   1.49719 
 O                    -0.25139   0.73203  -1.12616 
 O                     2.94834  -1.29567   1.00899 
 O                     2.41803  -0.36044  -1.93134 
 O                     0.80437   2.45705   1.0292 
 S                     1.70107   3.29102   0.18244 
 S                     3.77878  -0.38787   1.85877 
 S                     1.72255  -1.68127  -2.01598 
 O                     2.33906   2.34957  -0.79344 
 O                     2.56365   4.24492   0.83329 
 O                     3.12109   0.94918   1.76198 
 O                     4.17925  -0.8588    3.15777 
 O                     0.91277  -1.80679  -0.77353 
 O                     1.06901  -2.01251  -3.26066 
 C                     3.08662  -2.93582  -1.8206 
 C                     5.30808  -0.17283   0.86154 
 C                     0.55703   4.3153   -0.84429 
 F                     2.68897  -3.87642  -0.98092 
 F                     4.18014  -2.36382  -1.35961 
 F                     3.33951  -3.47823  -2.99674 
 F                     4.96344   0.29156  -0.33047 
 F                     5.91979  -1.33322   0.72579 
 F                     6.11052   0.68756   1.45681 
 F                    -0.52675   3.62664  -1.16059 
 F                     1.17668   4.68909  -1.94845 
 F                     0.20505   5.38221  -0.15133 
 C                    -4.32427  -0.19162  -0.1355 
 H                    -3.95789  -0.45142  -1.1409 
 C                    -4.50676  -1.59319   0.60181 
 C                    -5.55241  -2.38895  -0.06443 
 C                    -4.87316  -1.34676   2.00397 
 C                    -1.45379  -3.65846   1.37992 
 C                    -1.69013  -3.15079  -0.94886 
 C                    -0.9531   -3.75125   0.0983 
 H                    -0.95941  -4.11087   2.23966 
 H                    -1.35279  -3.1978   -1.98638 
 H                    -0.01832  -4.26692  -0.12198 
 N                    -6.35877  -3.01229  -0.61084 
 N                    -5.18001  -1.12788   3.09715 
 N                    -3.23699  -2.38797   0.5089 
 N                    -2.80624  -2.49402  -0.73669 
 C                    -2.64499  -2.95014   1.56579 
 H                    -3.11938  -2.83104   2.54134 
 Lu                    1.53412   0.36257   0.09654 
 O                    -3.42256   0.58849   0.57918 
 C                    -2.38537   1.17594  -1.8484 
 H                    -2.95891   0.33234  -2.17135 
 H                    -3.04124   1.92199  -1.45072 
 H                    -1.84719   1.58075  -2.67989 
 C                    -2.03582  -0.34876   2.6216 
 H                    -2.68506   0.46832   2.85776 
 H                    -2.61938  -1.22703   2.43999 
 H                    -1.37165  -0.52513   3.44177 
 
 ITRead=  0  0  0  0  0  0  0  0  0  0  0  0  0  0  0  0  0  0  0  0
 ITRead=  0  0  0  0  0  0  0  0  0  0  0  0  0  0  0  0  0  0  0  0
 ITRead=  0  0  0  0  0  0  0  0  0  0  0  0  0  0  0  0  0  0  0  0
 ITRead=  0  0  0  0  0  0  0
 MicOpt= -1 -1 -1 -1 -1 -1 -1 -1 -1 -1 -1 -1 -1 -1 -1 -1 -1 -1 -1 -1
 MicOpt= -1 -1 -1 -1 -1 -1 -1 -1 -1 -1 -1 -1 -1 -1 -1 -1 -1 -1 -1 -1
 MicOpt= -1 -1 -1 -1 -1 -1 -1 -1 -1 -1 -1 -1 -1 -1 -1 -1 -1 -1 -1 -1
 MicOpt= -1 -1 -1 -1 -1 -1 -1
 NAtoms=     67 NQM=       67 NQMF=       0 NMMI=      0 NMMIF=      0
                NMic=       0 NMicF=      0.
                    Isotopes and Nuclear Properties:
 (Nuclear quadrupole moments (NQMom) in fm**2, nuclear magnetic moments (NMagM)
  in nuclear magnetons)

  Atom         1           2           3           4           5           6           7           8           9          10
 IAtWgt=          12          12          12          12          12          12          12          12          12           1
 AtmWgt=  12.0000000  12.0000000  12.0000000  12.0000000  12.0000000  12.0000000  12.0000000  12.0000000  12.0000000   1.0078250
 NucSpn=           0           0           0           0           0           0           0           0           0           1
 AtZEff=  -0.0000000  -0.0000000  -0.0000000  -0.0000000  -0.0000000  -0.0000000  -0.0000000  -0.0000000  -0.0000000  -0.0000000
 NQMom=    0.0000000   0.0000000   0.0000000   0.0000000   0.0000000   0.0000000   0.0000000   0.0000000   0.0000000   0.0000000
 NMagM=    0.0000000   0.0000000   0.0000000   0.0000000   0.0000000   0.0000000   0.0000000   0.0000000   0.0000000   2.7928460
 AtZNuc=   6.0000000   6.0000000   6.0000000   6.0000000   6.0000000   6.0000000   6.0000000   6.0000000   6.0000000   1.0000000

  Atom        11          12          13          14          15          16          17          18          19          20
 IAtWgt=           1           1           1           1          16          16          16          16          16          32
 AtmWgt=   1.0078250   1.0078250   1.0078250   1.0078250  15.9949146  15.9949146  15.9949146  15.9949146  15.9949146  31.9720718
 NucSpn=           1           1           1           1           0           0           0           0           0           0
 AtZEff=  -0.0000000  -0.0000000  -0.0000000  -0.0000000  -0.0000000  -0.0000000  -0.0000000  -0.0000000  -0.0000000  -0.0000000
 NQMom=    0.0000000   0.0000000   0.0000000   0.0000000   0.0000000   0.0000000   0.0000000   0.0000000   0.0000000   0.0000000
 NMagM=    2.7928460   2.7928460   2.7928460   2.7928460   0.0000000   0.0000000   0.0000000   0.0000000   0.0000000   0.0000000
 AtZNuc=   1.0000000   1.0000000   1.0000000   1.0000000   8.0000000   8.0000000   8.0000000   8.0000000   8.0000000  16.0000000

  Atom        21          22          23          24          25          26          27          28          29          30
 IAtWgt=          32          32          16          16          16          16          16          16          12          12
 AtmWgt=  31.9720718  31.9720718  15.9949146  15.9949146  15.9949146  15.9949146  15.9949146  15.9949146  12.0000000  12.0000000
 NucSpn=           0           0           0           0           0           0           0           0           0           0
 AtZEff=  -0.0000000  -0.0000000  -0.0000000  -0.0000000  -0.0000000  -0.0000000  -0.0000000  -0.0000000  -0.0000000  -0.0000000
 NQMom=    0.0000000   0.0000000   0.0000000   0.0000000   0.0000000   0.0000000   0.0000000   0.0000000   0.0000000   0.0000000
 NMagM=    0.0000000   0.0000000   0.0000000   0.0000000   0.0000000   0.0000000   0.0000000   0.0000000   0.0000000   0.0000000
 AtZNuc=  16.0000000  16.0000000   8.0000000   8.0000000   8.0000000   8.0000000   8.0000000   8.0000000   6.0000000   6.0000000

  Atom        31          32          33          34          35          36          37          38          39          40
 IAtWgt=          12          19          19          19          19          19          19          19          19          19
 AtmWgt=  12.0000000  18.9984032  18.9984032  18.9984032  18.9984032  18.9984032  18.9984032  18.9984032  18.9984032  18.9984032
 NucSpn=           0           1           1           1           1           1           1           1           1           1
 AtZEff=  -0.0000000  -0.0000000  -0.0000000  -0.0000000  -0.0000000  -0.0000000  -0.0000000  -0.0000000  -0.0000000  -0.0000000
 NQMom=    0.0000000   0.0000000   0.0000000   0.0000000   0.0000000   0.0000000   0.0000000   0.0000000   0.0000000   0.0000000
 NMagM=    0.0000000   2.6288670   2.6288670   2.6288670   2.6288670   2.6288670   2.6288670   2.6288670   2.6288670   2.6288670
 AtZNuc=   6.0000000   9.0000000   9.0000000   9.0000000   9.0000000   9.0000000   9.0000000   9.0000000   9.0000000   9.0000000

  Atom        41          42          43          44          45          46          47          48          49          50
 IAtWgt=          12           1          12          12          12          12          12          12           1           1
 AtmWgt=  12.0000000   1.0078250  12.0000000  12.0000000  12.0000000  12.0000000  12.0000000  12.0000000   1.0078250   1.0078250
 NucSpn=           0           1           0           0           0           0           0           0           1           1
 AtZEff=  -0.0000000  -0.0000000  -0.0000000  -0.0000000  -0.0000000  -0.0000000  -0.0000000  -0.0000000  -0.0000000  -0.0000000
 NQMom=    0.0000000   0.0000000   0.0000000   0.0000000   0.0000000   0.0000000   0.0000000   0.0000000   0.0000000   0.0000000
 NMagM=    0.0000000   2.7928460   0.0000000   0.0000000   0.0000000   0.0000000   0.0000000   0.0000000   2.7928460   2.7928460
 AtZNuc=   6.0000000   1.0000000   6.0000000   6.0000000   6.0000000   6.0000000   6.0000000   6.0000000   1.0000000   1.0000000

  Atom        51          52          53          54          55          56          57          58          59          60
 IAtWgt=           1          14          14          14          14          12           1         175          16          12
 AtmWgt=   1.0078250  14.0030740  14.0030740  14.0030740  14.0030740  12.0000000   1.0078250 174.9409000  15.9949146  12.0000000
 NucSpn=           1           2           2           2           2           0           1           7           0           0
 AtZEff=  -0.0000000  -0.0000000  -0.0000000  -0.0000000  -0.0000000  -0.0000000  -0.0000000  -0.0000000  -0.0000000  -0.0000000
 NQMom=    0.0000000   2.0440000   2.0440000   2.0440000   2.0440000   0.0000000   0.0000000 349.0000000   0.0000000   0.0000000
 NMagM=    2.7928460   0.4037610   0.4037610   0.4037610   0.4037610   0.0000000   2.7928460   2.2327000   0.0000000   0.0000000
 AtZNuc=   1.0000000   7.0000000   7.0000000   7.0000000   7.0000000   6.0000000   1.0000000  71.0000000   8.0000000   6.0000000

  Atom        61          62          63          64          65          66          67
 IAtWgt=           1           1           1          12           1           1           1
 AtmWgt=   1.0078250   1.0078250   1.0078250  12.0000000   1.0078250   1.0078250   1.0078250
 NucSpn=           1           1           1           0           1           1           1
 AtZEff=  -0.0000000  -0.0000000  -0.0000000  -0.0000000  -0.0000000  -0.0000000  -0.0000000
 NQMom=    0.0000000   0.0000000   0.0000000   0.0000000   0.0000000   0.0000000   0.0000000
 NMagM=    2.7928460   2.7928460   2.7928460   0.0000000   2.7928460   2.7928460   2.7928460
 AtZNuc=   1.0000000   1.0000000   1.0000000   6.0000000   1.0000000   1.0000000   1.0000000
 Leave Link  101 at Thu May  1 00:13:29 2025, MaxMem= 82678120448 cpu:              30.1 elap:               1.4
 (Enter /sysapps/ubuntu-applications/gaussian-new/avx/g16/l103.exe)

 GradGradGradGradGradGradGradGradGradGradGradGradGradGradGradGradGradGrad
 Berny optimization.
 Initialization pass.
                           ----------------------------
                           !    Initial Parameters    !
                           ! (Angstroms and Degrees)  !
 --------------------------                            --------------------------
 ! Name  Definition              Value          Derivative Info.                !
 --------------------------------------------------------------------------------
 ! R1    R(1,2)                  1.4            estimate D2E/DX2                !
 ! R2    R(1,6)                  1.4007         estimate D2E/DX2                !
 ! R3    R(1,41)                 1.5094         estimate D2E/DX2                !
 ! R4    R(2,3)                  1.3954         estimate D2E/DX2                !
 ! R5    R(2,10)                 1.0936         estimate D2E/DX2                !
 ! R6    R(3,4)                  1.3972         estimate D2E/DX2                !
 ! R7    R(3,11)                 1.092          estimate D2E/DX2                !
 ! R8    R(4,5)                  1.3974         estimate D2E/DX2                !
 ! R9    R(4,12)                 1.0923         estimate D2E/DX2                !
 ! R10   R(5,6)                  1.3957         estimate D2E/DX2                !
 ! R11   R(5,13)                 1.0921         estimate D2E/DX2                !
 ! R12   R(6,14)                 1.092          estimate D2E/DX2                !
 ! R13   R(7,8)                  1.4163         estimate D2E/DX2                !
 ! R14   R(7,9)                  1.4107         estimate D2E/DX2                !
 ! R15   R(7,59)                 1.3873         estimate D2E/DX2                !
 ! R16   R(8,16)                 1.2585         estimate D2E/DX2                !
 ! R17   R(8,60)                 1.4014         estimate D2E/DX2                !
 ! R18   R(9,15)                 1.2622         estimate D2E/DX2                !
 ! R19   R(9,64)                 1.4014         estimate D2E/DX2                !
 ! R20   R(15,58)                2.1791         estimate D2E/DX2                !
 ! R21   R(16,58)                2.1953         estimate D2E/DX2                !
 ! R22   R(17,21)                1.4953         estimate D2E/DX2                !
 ! R23   R(17,58)                2.3627         estimate D2E/DX2                !
 ! R24   R(18,22)                1.4951         estimate D2E/DX2                !
 ! R25   R(18,58)                2.3273         estimate D2E/DX2                !
 ! R26   R(19,20)                1.4888         estimate D2E/DX2                !
 ! R27   R(19,58)                2.4061         estimate D2E/DX2                !
 ! R28   R(20,23)                1.4986         estimate D2E/DX2                !
 ! R29   R(20,24)                1.4414         estimate D2E/DX2                !
 ! R30   R(20,31)                1.8472         estimate D2E/DX2                !
 ! R31   R(20,58)                2.9345         estimate D2E/DX2                !
 ! R32   R(21,25)                1.4932         estimate D2E/DX2                !
 ! R33   R(21,26)                1.4386         estimate D2E/DX2                !
 ! R34   R(21,30)                1.8383         estimate D2E/DX2                !
 ! R35   R(21,58)                2.9508         estimate D2E/DX2                !
 ! R36   R(22,27)                1.4883         estimate D2E/DX2                !
 ! R37   R(22,28)                1.4443         estimate D2E/DX2                !
 ! R38   R(22,29)                1.8635         estimate D2E/DX2                !
 ! R39   R(22,58)                2.9454         estimate D2E/DX2                !
 ! R40   R(23,58)                2.3212         estimate D2E/DX2                !
 ! R41   R(25,58)                2.3741         estimate D2E/DX2                !
 ! R42   R(27,58)                2.4185         estimate D2E/DX2                !
 ! R43   R(29,32)                1.3221         estimate D2E/DX2                !
 ! R44   R(29,33)                1.3174         estimate D2E/DX2                !
 ! R45   R(29,34)                1.3196         estimate D2E/DX2                !
 ! R46   R(30,35)                1.3249         estimate D2E/DX2                !
 ! R47   R(30,36)                1.3188         estimate D2E/DX2                !
 ! R48   R(30,37)                1.3185         estimate D2E/DX2                !
 ! R49   R(31,38)                1.3224         estimate D2E/DX2                !
 ! R50   R(31,39)                1.3202         estimate D2E/DX2                !
 ! R51   R(31,40)                1.32           estimate D2E/DX2                !
 ! R52   R(41,42)                1.1012         estimate D2E/DX2                !
 ! R53   R(41,43)                1.5942         estimate D2E/DX2                !
 ! R54   R(41,59)                1.3901         estimate D2E/DX2                !
 ! R55   R(43,44)                1.4733         estimate D2E/DX2                !
 ! R56   R(43,45)                1.47           estimate D2E/DX2                !
 ! R57   R(43,54)                1.5009         estimate D2E/DX2                !
 ! R58   R(44,52)                1.1564         estimate D2E/DX2                !
 ! R59   R(45,53)                1.1563         estimate D2E/DX2                !
 ! R60   R(46,48)                1.3791         estimate D2E/DX2                !
 ! R61   R(46,49)                1.0901         estimate D2E/DX2                !
 ! R62   R(46,56)                1.3983         estimate D2E/DX2                !
 ! R63   R(47,48)                1.4143         estimate D2E/DX2                !
 ! R64   R(47,50)                1.092          estimate D2E/DX2                !
 ! R65   R(47,55)                1.3123         estimate D2E/DX2                !
 ! R66   R(48,51)                1.0901         estimate D2E/DX2                !
 ! R67   R(54,55)                1.3222         estimate D2E/DX2                !
 ! R68   R(54,56)                1.3355         estimate D2E/DX2                !
 ! R69   R(56,57)                1.0913         estimate D2E/DX2                !
 ! R70   R(60,61)                1.07           estimate D2E/DX2                !
 ! R71   R(60,62)                1.07           estimate D2E/DX2                !
 ! R72   R(60,63)                1.07           estimate D2E/DX2                !
 ! R73   R(64,65)                1.07           estimate D2E/DX2                !
 ! R74   R(64,66)                1.07           estimate D2E/DX2                !
 ! R75   R(64,67)                1.07           estimate D2E/DX2                !
 ! A1    A(2,1,6)              119.9577         estimate D2E/DX2                !
 ! A2    A(2,1,41)             119.8696         estimate D2E/DX2                !
 ! A3    A(6,1,41)             120.1717         estimate D2E/DX2                !
 ! A4    A(1,2,3)              120.053          estimate D2E/DX2                !
 ! A5    A(1,2,10)             119.6469         estimate D2E/DX2                !
 ! A6    A(3,2,10)             120.2994         estimate D2E/DX2                !
 ! A7    A(2,3,4)              119.9621         estimate D2E/DX2                !
 ! A8    A(2,3,11)             119.8157         estimate D2E/DX2                !
 ! A9    A(4,3,11)             120.2201         estimate D2E/DX2                !
 ! A10   A(3,4,5)              120.0432         estimate D2E/DX2                !
 ! A11   A(3,4,12)             119.9716         estimate D2E/DX2                !
 ! A12   A(5,4,12)             119.9837         estimate D2E/DX2                !
 ! A13   A(4,5,6)              120.17           estimate D2E/DX2                !
 ! A14   A(4,5,13)             120.1225         estimate D2E/DX2                !
 ! A15   A(6,5,13)             119.7069         estimate D2E/DX2                !
 ! A16   A(1,6,5)              119.8107         estimate D2E/DX2                !
 ! A17   A(1,6,14)             119.6245         estimate D2E/DX2                !
 ! A18   A(5,6,14)             120.5594         estimate D2E/DX2                !
 ! A19   A(8,7,9)              122.408          estimate D2E/DX2                !
 ! A20   A(8,7,59)             119.5927         estimate D2E/DX2                !
 ! A21   A(9,7,59)             117.7908         estimate D2E/DX2                !
 ! A22   A(7,8,16)             125.3917         estimate D2E/DX2                !
 ! A23   A(7,8,60)             115.3082         estimate D2E/DX2                !
 ! A24   A(16,8,60)            119.2779         estimate D2E/DX2                !
 ! A25   A(7,9,15)             126.4671         estimate D2E/DX2                !
 ! A26   A(7,9,64)             114.4697         estimate D2E/DX2                !
 ! A27   A(15,9,64)            119.0486         estimate D2E/DX2                !
 ! A28   A(9,15,58)            132.308          estimate D2E/DX2                !
 ! A29   A(8,16,58)            132.8909         estimate D2E/DX2                !
 ! A30   A(19,20,23)           105.9553         estimate D2E/DX2                !
 ! A31   A(19,20,24)           118.3154         estimate D2E/DX2                !
 ! A32   A(19,20,31)           104.6972         estimate D2E/DX2                !
 ! A33   A(23,20,24)           117.0676         estimate D2E/DX2                !
 ! A34   A(23,20,31)           104.4814         estimate D2E/DX2                !
 ! A35   A(24,20,31)           104.7528         estimate D2E/DX2                !
 ! A36   A(24,20,58)           135.0488         estimate D2E/DX2                !
 ! A37   A(31,20,58)           120.1231         estimate D2E/DX2                !
 ! A38   A(17,21,25)           105.1983         estimate D2E/DX2                !
 ! A39   A(17,21,26)           117.9711         estimate D2E/DX2                !
 ! A40   A(17,21,30)           102.9877         estimate D2E/DX2                !
 ! A41   A(25,21,26)           118.3117         estimate D2E/DX2                !
 ! A42   A(25,21,30)           103.0917         estimate D2E/DX2                !
 ! A43   A(26,21,30)           107.2501         estimate D2E/DX2                !
 ! A44   A(26,21,58)           146.5398         estimate D2E/DX2                !
 ! A45   A(30,21,58)           106.207          estimate D2E/DX2                !
 ! A46   A(18,22,27)           106.28           estimate D2E/DX2                !
 ! A47   A(18,22,28)           117.5076         estimate D2E/DX2                !
 ! A48   A(18,22,29)           104.3769         estimate D2E/DX2                !
 ! A49   A(27,22,28)           116.9918         estimate D2E/DX2                !
 ! A50   A(27,22,29)           104.7123         estimate D2E/DX2                !
 ! A51   A(28,22,29)           105.4958         estimate D2E/DX2                !
 ! A52   A(28,22,58)           138.4413         estimate D2E/DX2                !
 ! A53   A(29,22,58)           116.0257         estimate D2E/DX2                !
 ! A54   A(22,29,32)           108.9887         estimate D2E/DX2                !
 ! A55   A(22,29,33)           110.6088         estimate D2E/DX2                !
 ! A56   A(22,29,34)           108.8769         estimate D2E/DX2                !
 ! A57   A(32,29,33)           109.6534         estimate D2E/DX2                !
 ! A58   A(32,29,34)           109.3453         estimate D2E/DX2                !
 ! A59   A(33,29,34)           109.346          estimate D2E/DX2                !
 ! A60   A(21,30,35)           108.2197         estimate D2E/DX2                !
 ! A61   A(21,30,36)           109.8032         estimate D2E/DX2                !
 ! A62   A(21,30,37)           109.7374         estimate D2E/DX2                !
 ! A63   A(35,30,36)           109.6618         estimate D2E/DX2                !
 ! A64   A(35,30,37)           109.6197         estimate D2E/DX2                !
 ! A65   A(36,30,37)           109.7762         estimate D2E/DX2                !
 ! A66   A(20,31,38)           110.5944         estimate D2E/DX2                !
 ! A67   A(20,31,39)           109.3406         estimate D2E/DX2                !
 ! A68   A(20,31,40)           108.756          estimate D2E/DX2                !
 ! A69   A(38,31,39)           109.3941         estimate D2E/DX2                !
 ! A70   A(38,31,40)           109.1437         estimate D2E/DX2                !
 ! A71   A(39,31,40)           109.5955         estimate D2E/DX2                !
 ! A72   A(1,41,42)            110.1712         estimate D2E/DX2                !
 ! A73   A(1,41,43)            110.1917         estimate D2E/DX2                !
 ! A74   A(1,41,59)            109.7468         estimate D2E/DX2                !
 ! A75   A(42,41,43)           104.6519         estimate D2E/DX2                !
 ! A76   A(42,41,59)           112.705          estimate D2E/DX2                !
 ! A77   A(43,41,59)           109.2605         estimate D2E/DX2                !
 ! A78   A(41,43,44)           110.3026         estimate D2E/DX2                !
 ! A79   A(41,43,45)           108.802          estimate D2E/DX2                !
 ! A80   A(41,43,54)           109.8825         estimate D2E/DX2                !
 ! A81   A(44,43,45)           110.1806         estimate D2E/DX2                !
 ! A82   A(44,43,54)           106.6453         estimate D2E/DX2                !
 ! A83   A(45,43,54)           111.0193         estimate D2E/DX2                !
 ! A84   A(48,46,49)           122.7096         estimate D2E/DX2                !
 ! A85   A(48,46,56)           117.8336         estimate D2E/DX2                !
 ! A86   A(49,46,56)           119.4568         estimate D2E/DX2                !
 ! A87   A(48,47,50)           121.6142         estimate D2E/DX2                !
 ! A88   A(48,47,55)           122.4116         estimate D2E/DX2                !
 ! A89   A(50,47,55)           115.9701         estimate D2E/DX2                !
 ! A90   A(46,48,47)           118.0544         estimate D2E/DX2                !
 ! A91   A(46,48,51)           122.0706         estimate D2E/DX2                !
 ! A92   A(47,48,51)           119.875          estimate D2E/DX2                !
 ! A93   A(43,54,55)           112.1112         estimate D2E/DX2                !
 ! A94   A(43,54,56)           123.2952         estimate D2E/DX2                !
 ! A95   A(55,54,56)           124.565          estimate D2E/DX2                !
 ! A96   A(47,55,54)           118.0039         estimate D2E/DX2                !
 ! A97   A(46,56,54)           119.0569         estimate D2E/DX2                !
 ! A98   A(46,56,57)           122.986          estimate D2E/DX2                !
 ! A99   A(54,56,57)           117.957          estimate D2E/DX2                !
 ! A100  A(15,58,16)            79.2802         estimate D2E/DX2                !
 ! A101  A(15,58,17)            90.2272         estimate D2E/DX2                !
 ! A102  A(15,58,18)           138.991          estimate D2E/DX2                !
 ! A103  A(15,58,19)            75.8212         estimate D2E/DX2                !
 ! A104  A(15,58,20)           106.1456         estimate D2E/DX2                !
 ! A105  A(15,58,21)            95.7449         estimate D2E/DX2                !
 ! A106  A(15,58,22)           109.2266         estimate D2E/DX2                !
 ! A107  A(15,58,23)           135.7424         estimate D2E/DX2                !
 ! A108  A(15,58,25)            95.4514         estimate D2E/DX2                !
 ! A109  A(15,58,27)            79.3873         estimate D2E/DX2                !
 ! A110  A(16,58,17)           145.0874         estimate D2E/DX2                !
 ! A111  A(16,58,18)            82.8703         estimate D2E/DX2                !
 ! A112  A(16,58,19)            79.7885         estimate D2E/DX2                !
 ! A113  A(16,58,20)            83.9513         estimate D2E/DX2                !
 ! A114  A(16,58,22)            76.6649         estimate D2E/DX2                !
 ! A115  A(16,58,23)            85.6662         estimate D2E/DX2                !
 ! A116  A(16,58,25)           153.2257         estimate D2E/DX2                !
 ! A117  A(16,58,27)            75.0271         estimate D2E/DX2                !
 ! A118  A(17,58,18)            83.7499         estimate D2E/DX2                !
 ! A119  A(17,58,19)           130.0002         estimate D2E/DX2                !
 ! A120  A(17,58,20)           130.9228         estimate D2E/DX2                !
 ! A121  A(17,58,22)            75.6219         estimate D2E/DX2                !
 ! A122  A(17,58,23)           122.771          estimate D2E/DX2                !
 ! A123  A(17,58,25)            60.1579         estimate D2E/DX2                !
 ! A124  A(17,58,27)            70.3167         estimate D2E/DX2                !
 ! A125  A(18,58,19)           136.334          estimate D2E/DX2                !
 ! A126  A(18,58,20)           108.2959         estimate D2E/DX2                !
 ! A127  A(18,58,21)            98.7689         estimate D2E/DX2                !
 ! A128  A(18,58,23)            78.4717         estimate D2E/DX2                !
 ! A129  A(18,58,25)           115.7303         estimate D2E/DX2                !
 ! A130  A(18,58,27)            60.3597         estimate D2E/DX2                !
 ! A131  A(19,58,21)           102.7445         estimate D2E/DX2                !
 ! A132  A(19,58,22)           154.35           estimate D2E/DX2                !
 ! A133  A(19,58,23)            60.5701         estimate D2E/DX2                !
 ! A134  A(19,58,25)            73.4845         estimate D2E/DX2                !
 ! A135  A(19,58,27)           147.3886         estimate D2E/DX2                !
 ! A136  A(20,58,21)           101.1299         estimate D2E/DX2                !
 ! A137  A(20,58,22)           135.2216         estimate D2E/DX2                !
 ! A138  A(20,58,25)            72.2328         estimate D2E/DX2                !
 ! A139  A(20,58,27)           156.9683         estimate D2E/DX2                !
 ! A140  A(21,58,22)           101.7236         estimate D2E/DX2                !
 ! A141  A(21,58,23)           100.5376         estimate D2E/DX2                !
 ! A142  A(21,58,27)           100.496          estimate D2E/DX2                !
 ! A143  A(22,58,23)           107.2664         estimate D2E/DX2                !
 ! A144  A(22,58,25)           129.185          estimate D2E/DX2                !
 ! A145  A(23,58,25)            79.9592         estimate D2E/DX2                !
 ! A146  A(23,58,27)           135.9702         estimate D2E/DX2                !
 ! A147  A(25,58,27)           130.2213         estimate D2E/DX2                !
 ! A148  A(7,59,41)            119.3281         estimate D2E/DX2                !
 ! A149  A(8,60,61)            109.4712         estimate D2E/DX2                !
 ! A150  A(8,60,62)            109.4712         estimate D2E/DX2                !
 ! A151  A(8,60,63)            109.4712         estimate D2E/DX2                !
 ! A152  A(61,60,62)           109.4713         estimate D2E/DX2                !
 ! A153  A(61,60,63)           109.4712         estimate D2E/DX2                !
 ! A154  A(62,60,63)           109.4712         estimate D2E/DX2                !
 ! A155  A(9,64,65)            109.4712         estimate D2E/DX2                !
 ! A156  A(9,64,66)            109.4712         estimate D2E/DX2                !
 ! A157  A(9,64,67)            109.4712         estimate D2E/DX2                !
 ! A158  A(65,64,66)           109.4713         estimate D2E/DX2                !
 ! A159  A(65,64,67)           109.4712         estimate D2E/DX2                !
 ! A160  A(66,64,67)           109.4712         estimate D2E/DX2                !
 ! A161  L(43,44,52,2,-1)      179.6749         estimate D2E/DX2                !
 ! A162  L(43,45,53,4,-1)      178.3995         estimate D2E/DX2                !
 ! A163  L(16,58,21,15,-1)     175.0251         estimate D2E/DX2                !
 ! A164  L(43,44,52,2,-2)      178.6708         estimate D2E/DX2                !
 ! A165  L(43,45,53,4,-2)      180.2575         estimate D2E/DX2                !
 ! A166  L(16,58,21,15,-2)     176.2198         estimate D2E/DX2                !
 ! D1    D(6,1,2,3)             -0.6712         estimate D2E/DX2                !
 ! D2    D(6,1,2,10)           179.0301         estimate D2E/DX2                !
 ! D3    D(41,1,2,3)           179.685          estimate D2E/DX2                !
 ! D4    D(41,1,2,10)           -0.6137         estimate D2E/DX2                !
 ! D5    D(2,1,6,5)              0.5394         estimate D2E/DX2                !
 ! D6    D(2,1,6,14)          -178.6236         estimate D2E/DX2                !
 ! D7    D(41,1,6,5)          -179.8178         estimate D2E/DX2                !
 ! D8    D(41,1,6,14)            1.0192         estimate D2E/DX2                !
 ! D9    D(2,1,41,42)           24.3742         estimate D2E/DX2                !
 ! D10   D(2,1,41,43)          -90.6006         estimate D2E/DX2                !
 ! D11   D(2,1,41,59)          149.0388         estimate D2E/DX2                !
 ! D12   D(6,1,41,42)         -155.2689         estimate D2E/DX2                !
 ! D13   D(6,1,41,43)           89.7563         estimate D2E/DX2                !
 ! D14   D(6,1,41,59)          -30.6042         estimate D2E/DX2                !
 ! D15   D(1,2,3,4)              0.3322         estimate D2E/DX2                !
 ! D16   D(1,2,3,11)           179.7985         estimate D2E/DX2                !
 ! D17   D(10,2,3,4)          -179.3672         estimate D2E/DX2                !
 ! D18   D(10,2,3,11)            0.0991         estimate D2E/DX2                !
 ! D19   D(2,3,4,5)              0.1377         estimate D2E/DX2                !
 ! D20   D(2,3,4,12)           179.689          estimate D2E/DX2                !
 ! D21   D(11,3,4,5)          -179.3264         estimate D2E/DX2                !
 ! D22   D(11,3,4,12)            0.2249         estimate D2E/DX2                !
 ! D23   D(3,4,5,6)             -0.2688         estimate D2E/DX2                !
 ! D24   D(3,4,5,13)           179.4579         estimate D2E/DX2                !
 ! D25   D(12,4,5,6)          -179.82           estimate D2E/DX2                !
 ! D26   D(12,4,5,13)           -0.0933         estimate D2E/DX2                !
 ! D27   D(4,5,6,1)             -0.0704         estimate D2E/DX2                !
 ! D28   D(4,5,6,14)           179.0846         estimate D2E/DX2                !
 ! D29   D(13,5,6,1)          -179.7983         estimate D2E/DX2                !
 ! D30   D(13,5,6,14)           -0.6433         estimate D2E/DX2                !
 ! D31   D(9,7,8,16)             0.8798         estimate D2E/DX2                !
 ! D32   D(9,7,8,60)           179.1407         estimate D2E/DX2                !
 ! D33   D(59,7,8,16)          175.5136         estimate D2E/DX2                !
 ! D34   D(59,7,8,60)           -6.2254         estimate D2E/DX2                !
 ! D35   D(8,7,9,15)            -1.7477         estimate D2E/DX2                !
 ! D36   D(8,7,9,64)           179.6658         estimate D2E/DX2                !
 ! D37   D(59,7,9,15)         -176.4734         estimate D2E/DX2                !
 ! D38   D(59,7,9,64)            4.9401         estimate D2E/DX2                !
 ! D39   D(8,7,59,41)           68.3157         estimate D2E/DX2                !
 ! D40   D(9,7,59,41)         -116.8048         estimate D2E/DX2                !
 ! D41   D(7,8,16,58)           -8.4263         estimate D2E/DX2                !
 ! D42   D(60,8,16,58)         173.3761         estimate D2E/DX2                !
 ! D43   D(7,8,60,61)          -69.2195         estimate D2E/DX2                !
 ! D44   D(7,8,60,62)           50.7805         estimate D2E/DX2                !
 ! D45   D(7,8,60,63)          170.7805         estimate D2E/DX2                !
 ! D46   D(16,8,60,61)         109.1552         estimate D2E/DX2                !
 ! D47   D(16,8,60,62)        -130.8448         estimate D2E/DX2                !
 ! D48   D(16,8,60,63)         -10.8448         estimate D2E/DX2                !
 ! D49   D(7,9,15,58)           10.1099         estimate D2E/DX2                !
 ! D50   D(64,9,15,58)        -171.3617         estimate D2E/DX2                !
 ! D51   D(7,9,64,65)          -51.083          estimate D2E/DX2                !
 ! D52   D(7,9,64,66)           68.917          estimate D2E/DX2                !
 ! D53   D(7,9,64,67)         -171.083          estimate D2E/DX2                !
 ! D54   D(15,9,64,65)         130.2172         estimate D2E/DX2                !
 ! D55   D(15,9,64,66)        -109.7828         estimate D2E/DX2                !
 ! D56   D(15,9,64,67)          10.2172         estimate D2E/DX2                !
 ! D57   D(9,15,58,16)         -11.5002         estimate D2E/DX2                !
 ! D58   D(9,15,58,17)        -157.9962         estimate D2E/DX2                !
 ! D59   D(9,15,58,18)         -77.2817         estimate D2E/DX2                !
 ! D60   D(9,15,58,19)          70.552          estimate D2E/DX2                !
 ! D61   D(9,15,58,20)          68.9182         estimate D2E/DX2                !
 ! D62   D(9,15,58,21)         172.28           estimate D2E/DX2                !
 ! D63   D(9,15,58,22)         -83.1616         estimate D2E/DX2                !
 ! D64   D(9,15,58,23)          60.7727         estimate D2E/DX2                !
 ! D65   D(9,15,58,25)         141.9707         estimate D2E/DX2                !
 ! D66   D(9,15,58,27)         -88.0821         estimate D2E/DX2                !
 ! D67   D(8,16,58,15)          10.7907         estimate D2E/DX2                !
 ! D68   D(8,16,58,17)          85.4718         estimate D2E/DX2                !
 ! D69   D(8,16,58,18)         153.6993         estimate D2E/DX2                !
 ! D70   D(8,16,58,19)         -66.5466         estimate D2E/DX2                !
 ! D71   D(8,16,58,20)         -96.9471         estimate D2E/DX2                !
 ! D72   D(8,16,58,22)         123.7026         estimate D2E/DX2                !
 ! D73   D(8,16,58,23)        -127.3999         estimate D2E/DX2                !
 ! D74   D(8,16,58,25)         -69.9702         estimate D2E/DX2                !
 ! D75   D(8,16,58,27)          92.5462         estimate D2E/DX2                !
 ! D76   D(19,20,31,38)        -35.353          estimate D2E/DX2                !
 ! D77   D(19,20,31,39)       -155.873          estimate D2E/DX2                !
 ! D78   D(19,20,31,40)         84.4865         estimate D2E/DX2                !
 ! D79   D(23,20,31,38)         75.8242         estimate D2E/DX2                !
 ! D80   D(23,20,31,39)        -44.6958         estimate D2E/DX2                !
 ! D81   D(23,20,31,40)       -164.3363         estimate D2E/DX2                !
 ! D82   D(24,20,31,38)       -160.5336         estimate D2E/DX2                !
 ! D83   D(24,20,31,39)         78.9464         estimate D2E/DX2                !
 ! D84   D(24,20,31,40)        -40.6941         estimate D2E/DX2                !
 ! D85   D(58,20,31,38)         22.1661         estimate D2E/DX2                !
 ! D86   D(58,20,31,39)        -98.3539         estimate D2E/DX2                !
 ! D87   D(58,20,31,40)        142.0056         estimate D2E/DX2                !
 ! D88   D(24,20,58,15)         99.7244         estimate D2E/DX2                !
 ! D89   D(24,20,58,16)        176.6978         estimate D2E/DX2                !
 ! D90   D(24,20,58,17)         -5.1342         estimate D2E/DX2                !
 ! D91   D(24,20,58,18)       -102.8861         estimate D2E/DX2                !
 ! D92   D(24,20,58,21)          0.334          estimate D2E/DX2                !
 ! D93   D(24,20,58,22)       -119.1556         estimate D2E/DX2                !
 ! D94   D(24,20,58,25)          9.089          estimate D2E/DX2                !
 ! D95   D(24,20,58,27)       -159.2699         estimate D2E/DX2                !
 ! D96   D(31,20,58,15)        -83.972          estimate D2E/DX2                !
 ! D97   D(31,20,58,16)         -6.9986         estimate D2E/DX2                !
 ! D98   D(31,20,58,17)        171.1694         estimate D2E/DX2                !
 ! D99   D(31,20,58,18)         73.4175         estimate D2E/DX2                !
 ! D100  D(31,20,58,21)        176.6376         estimate D2E/DX2                !
 ! D101  D(31,20,58,22)         57.148          estimate D2E/DX2                !
 ! D102  D(31,20,58,25)       -174.6074         estimate D2E/DX2                !
 ! D103  D(31,20,58,27)         17.0337         estimate D2E/DX2                !
 ! D104  D(17,21,30,35)         56.3217         estimate D2E/DX2                !
 ! D105  D(17,21,30,36)        -63.3492         estimate D2E/DX2                !
 ! D106  D(17,21,30,37)        175.9034         estimate D2E/DX2                !
 ! D107  D(25,21,30,35)        -52.9385         estimate D2E/DX2                !
 ! D108  D(25,21,30,36)       -172.6094         estimate D2E/DX2                !
 ! D109  D(25,21,30,37)         66.6432         estimate D2E/DX2                !
 ! D110  D(26,21,30,35)       -178.5347         estimate D2E/DX2                !
 ! D111  D(26,21,30,36)         61.7944         estimate D2E/DX2                !
 ! D112  D(26,21,30,37)        -58.953          estimate D2E/DX2                !
 ! D113  D(58,21,30,35)          1.9262         estimate D2E/DX2                !
 ! D114  D(58,21,30,36)       -117.7447         estimate D2E/DX2                !
 ! D115  D(58,21,30,37)        121.5079         estimate D2E/DX2                !
 ! D116  D(26,21,58,15)         -4.5538         estimate D2E/DX2                !
 ! D117  D(26,21,58,18)       -146.081          estimate D2E/DX2                !
 ! D118  D(26,21,58,19)         72.1698         estimate D2E/DX2                !
 ! D119  D(26,21,58,20)        103.1823         estimate D2E/DX2                !
 ! D120  D(26,21,58,22)       -115.5862         estimate D2E/DX2                !
 ! D121  D(26,21,58,23)        134.1135         estimate D2E/DX2                !
 ! D122  D(26,21,58,27)        -84.7886         estimate D2E/DX2                !
 ! D123  D(30,21,58,15)        174.6479         estimate D2E/DX2                !
 ! D124  D(30,21,58,18)         33.1206         estimate D2E/DX2                !
 ! D125  D(30,21,58,19)       -108.6286         estimate D2E/DX2                !
 ! D126  D(30,21,58,20)        -77.6161         estimate D2E/DX2                !
 ! D127  D(30,21,58,22)         63.6155         estimate D2E/DX2                !
 ! D128  D(30,21,58,23)        -46.6849         estimate D2E/DX2                !
 ! D129  D(30,21,58,27)         94.413          estimate D2E/DX2                !
 ! D130  D(18,22,29,32)        135.3533         estimate D2E/DX2                !
 ! D131  D(18,22,29,33)         14.7291         estimate D2E/DX2                !
 ! D132  D(18,22,29,34)       -105.4443         estimate D2E/DX2                !
 ! D133  D(27,22,29,32)         23.8528         estimate D2E/DX2                !
 ! D134  D(27,22,29,33)        -96.7714         estimate D2E/DX2                !
 ! D135  D(27,22,29,34)        143.0552         estimate D2E/DX2                !
 ! D136  D(28,22,29,32)       -100.1855         estimate D2E/DX2                !
 ! D137  D(28,22,29,33)        139.1904         estimate D2E/DX2                !
 ! D138  D(28,22,29,34)         19.0169         estimate D2E/DX2                !
 ! D139  D(58,22,29,32)         81.6188         estimate D2E/DX2                !
 ! D140  D(58,22,29,33)        -39.0054         estimate D2E/DX2                !
 ! D141  D(58,22,29,34)       -159.1789         estimate D2E/DX2                !
 ! D142  D(28,22,58,15)         82.8523         estimate D2E/DX2                !
 ! D143  D(28,22,58,16)          9.4184         estimate D2E/DX2                !
 ! D144  D(28,22,58,17)        167.9724         estimate D2E/DX2                !
 ! D145  D(28,22,58,19)        -14.4433         estimate D2E/DX2                !
 ! D146  D(28,22,58,20)        -57.4638         estimate D2E/DX2                !
 ! D147  D(28,22,58,21)       -176.7403         estimate D2E/DX2                !
 ! D148  D(28,22,58,23)        -71.6647         estimate D2E/DX2                !
 ! D149  D(28,22,58,25)       -162.6855         estimate D2E/DX2                !
 ! D150  D(29,22,58,15)        -99.769          estimate D2E/DX2                !
 ! D151  D(29,22,58,16)       -173.2029         estimate D2E/DX2                !
 ! D152  D(29,22,58,17)        -14.649          estimate D2E/DX2                !
 ! D153  D(29,22,58,19)        162.9353         estimate D2E/DX2                !
 ! D154  D(29,22,58,20)        119.9148         estimate D2E/DX2                !
 ! D155  D(29,22,58,21)          0.6383         estimate D2E/DX2                !
 ! D156  D(29,22,58,23)        105.7139         estimate D2E/DX2                !
 ! D157  D(29,22,58,25)         14.6931         estimate D2E/DX2                !
 ! D158  D(1,41,43,44)          54.0103         estimate D2E/DX2                !
 ! D159  D(1,41,43,45)         -66.9555         estimate D2E/DX2                !
 ! D160  D(1,41,43,54)         171.3056         estimate D2E/DX2                !
 ! D161  D(42,41,43,44)        -64.4081         estimate D2E/DX2                !
 ! D162  D(42,41,43,45)        174.626          estimate D2E/DX2                !
 ! D163  D(42,41,43,54)         52.8872         estimate D2E/DX2                !
 ! D164  D(59,41,43,44)        174.6632         estimate D2E/DX2                !
 ! D165  D(59,41,43,45)         53.6974         estimate D2E/DX2                !
 ! D166  D(59,41,43,54)        -68.0414         estimate D2E/DX2                !
 ! D167  D(1,41,59,7)         -155.9141         estimate D2E/DX2                !
 ! D168  D(42,41,59,7)         -32.7289         estimate D2E/DX2                !
 ! D169  D(43,41,59,7)          83.1617         estimate D2E/DX2                !
 ! D170  D(41,43,54,55)        -52.4904         estimate D2E/DX2                !
 ! D171  D(41,43,54,56)        129.3776         estimate D2E/DX2                !
 ! D172  D(44,43,54,55)         67.0629         estimate D2E/DX2                !
 ! D173  D(44,43,54,56)       -111.0692         estimate D2E/DX2                !
 ! D174  D(45,43,54,55)       -172.8963         estimate D2E/DX2                !
 ! D175  D(45,43,54,56)          8.9717         estimate D2E/DX2                !
 ! D176  D(49,46,48,47)        178.6805         estimate D2E/DX2                !
 ! D177  D(49,46,48,51)         -1.3765         estimate D2E/DX2                !
 ! D178  D(56,46,48,47)         -1.3776         estimate D2E/DX2                !
 ! D179  D(56,46,48,51)        178.5653         estimate D2E/DX2                !
 ! D180  D(48,46,56,54)         -0.596          estimate D2E/DX2                !
 ! D181  D(48,46,56,57)        179.5015         estimate D2E/DX2                !
 ! D182  D(49,46,56,54)        179.3478         estimate D2E/DX2                !
 ! D183  D(49,46,56,57)         -0.5547         estimate D2E/DX2                !
 ! D184  D(50,47,48,46)       -179.3683         estimate D2E/DX2                !
 ! D185  D(50,47,48,51)          0.6874         estimate D2E/DX2                !
 ! D186  D(55,47,48,46)          1.4012         estimate D2E/DX2                !
 ! D187  D(55,47,48,51)       -178.5431         estimate D2E/DX2                !
 ! D188  D(48,47,55,54)          0.6654         estimate D2E/DX2                !
 ! D189  D(50,47,55,54)       -178.6056         estimate D2E/DX2                !
 ! D190  D(43,54,55,47)        178.9946         estimate D2E/DX2                !
 ! D191  D(56,54,55,47)         -2.9015         estimate D2E/DX2                !
 ! D192  D(43,54,56,46)       -179.2151         estimate D2E/DX2                !
 ! D193  D(43,54,56,57)          0.6924         estimate D2E/DX2                !
 ! D194  D(55,54,56,46)          2.8865         estimate D2E/DX2                !
 ! D195  D(55,54,56,57)       -177.206          estimate D2E/DX2                !
 --------------------------------------------------------------------------------
 Trust Radius=3.00D-01 FncErr=1.00D-07 GrdErr=1.00D-06 EigMax=2.50D+02 EigMin=1.00D-04
 Number of steps in this run=    402 maximum allowed number of steps=    402.
 GradGradGradGradGradGradGradGradGradGradGradGradGradGradGradGradGradGrad

 Leave Link  103 at Thu May  1 00:13:29 2025, MaxMem= 82678120448 cpu:               1.8 elap:               0.1
 (Enter /sysapps/ubuntu-applications/gaussian-new/avx/g16/l202.exe)
 Stoichiometry    C22H16F9LuN4O12S3
 Framework group  C1[X(C22H16F9LuN4O12S3)]
 Deg. of freedom   195
 Full point group                 C1      NOp   1
 Largest Abelian subgroup         C1      NOp   1
 Largest concise Abelian subgroup C1      NOp   1
                         Standard orientation:                         
 ---------------------------------------------------------------------
 Center     Atomic      Atomic             Coordinates (Angstroms)
 Number     Number       Type             X           Y           Z
 ---------------------------------------------------------------------
      1          6           0       -5.692578    0.537454   -0.258961
      2          6           0       -6.507332    0.293071   -1.370936
      3          6           0       -7.735104    0.944573   -1.494346
      4          6           0       -8.148333    1.846747   -0.510685
      5          6           0       -7.331673    2.098980    0.594777
      6          6           0       -6.104136    1.447319    0.723277
      7          6           0       -2.105022    0.440741    0.367333
      8          6           0       -1.520206    0.748324   -0.885347
      9          6           0       -1.337964    0.043905    1.482799
     10          1           0       -6.173808   -0.406323   -2.142692
     11          1           0       -8.366053    0.753552   -2.364941
     12          1           0       -9.107137    2.360672   -0.609680
     13          1           0       -7.649396    2.810535    1.359942
     14          1           0       -5.454212    1.650747    1.576952
     15          8           0       -0.086401   -0.116922    1.513733
     16          8           0       -0.291142    0.691186   -1.149616
     17          8           0        2.898658   -1.246042    1.082203
     18          8           0        2.376615   -0.444349   -1.898764
     19          8           0        0.765531    2.509701    0.927003
     20         16           0        1.666244    3.301674    0.044920
     21         16           0        3.730118   -0.302783    1.891400
     22         16           0        1.677475   -1.765703   -1.924510
     23          8           0        2.303346    2.314935   -0.885742
     24          8           0        2.530345    4.281829    0.653354
     25          8           0        3.076481    1.030302    1.732433
     26          8           0        4.126762   -0.715130    3.211325
     27          8           0        0.864982   -1.832174   -0.679277
     28          8           0        1.025334   -2.151511   -3.154123
     29          6           0        3.037538   -3.013865   -1.669392
     30          6           0        5.261915   -0.137722    0.888493
     31          6           0        0.527111    4.281293   -1.029745
     32          9           0        2.635578   -3.914086   -0.788517
     33          9           0        4.131836   -2.424520   -1.232752
     34          9           0        3.291073   -3.610039   -2.819072
     35          9           0        4.920872    0.272809   -0.324143
     36          9           0        5.870519   -1.304807    0.807013
     37          9           0        6.065720    0.746648    1.445542
     38          9           0       -0.558056    3.581979   -1.316513
     39          9           0        1.149928    4.602620   -2.148537
     40          9           0        0.176921    5.379670   -0.386849
     41          6           0       -4.368547   -0.174905   -0.126114
     42          1           0       -4.001024   -0.481294   -1.117885
     43          6           0       -4.556491   -1.540892    0.673947
     44          6           0       -5.603176   -2.363258    0.042562
     45          6           0       -4.924831   -1.229767    2.062676
     46          6           0       -1.510997   -3.577101    1.551559
     47          6           0       -1.741458   -3.175458   -0.798414
     48          6           0       -1.008155   -3.729626    0.276511
     49          1           0       -1.019549   -3.991231    2.432024
     50          1           0       -1.402295   -3.270668   -1.832030
     51          1           0       -0.074457   -4.257423    0.081861
     52          7           0       -6.410311   -3.008589   -0.476494
     53          7           0       -5.233106   -0.960412    3.144122
     54          7           0       -3.288859   -2.342637    0.619929
     55          7           0       -2.856057   -2.506572   -0.618660
     56          6           0       -2.700484   -2.857701    1.702538
     57          1           0       -3.176373   -2.692921    2.670681
     58         71           0        1.490968    0.372835    0.092260
     59          8           0       -3.465937    0.634443    0.554085
     60          6           0       -2.422466    1.107693   -1.895645
     61          1           0       -2.997835    0.251863   -2.180965
     62          1           0       -3.076917    1.872938   -1.533715
     63          1           0       -1.881541    1.472662   -2.743642
     64          6           0       -2.085779   -0.212610    2.639904
     65          1           0       -2.733101    0.616200    2.837257
     66          1           0       -2.671537   -1.096613    2.497335
     67          1           0       -1.423674   -0.353272    3.468596
 ---------------------------------------------------------------------
 Rotational constants (GHZ):           0.0794924           0.0376548           0.0312139
 Leave Link  202 at Thu May  1 00:13:29 2025, MaxMem= 82678120448 cpu:               2.3 elap:               0.2
 (Enter /sysapps/ubuntu-applications/gaussian-new/avx/g16/l301.exe)
 General basis read from cards:  (5D, 7F)
 Centers:      10     11     12     13     14     42     49     50     51     57
 Centers:      61     62     63     65     66     67
 S 3 1.00
     Exponent=  1.3010701000D+01 Coefficients=  1.9682158000D-02
     Exponent=  1.9622572000D+00 Coefficients=  1.3796524000D-01
     Exponent=  4.4453796000D-01 Coefficients=  4.7831935000D-01
 S 1 1.00
     Exponent=  1.2194962000D-01 Coefficients=  1.0000000000D+00
 P 1 1.00
     Exponent=  8.0000000000D-01 Coefficients=  1.0000000000D+00
 ****
 Centers:       1      2      3      4      5      6      7      8      9     29
 Centers:      30     31     41     43     44     45     46     47     48     56
 Centers:      60     64
 S 5 1.00
     Exponent=  1.2384016938D+03 Coefficients=  5.4568832082D-03
     Exponent=  1.8629004992D+02 Coefficients=  4.0638409211D-02
     Exponent=  4.2251176346D+01 Coefficients=  1.8025593888D-01
     Exponent=  1.1676557932D+01 Coefficients=  4.6315121755D-01
     Exponent=  3.5930506482D+00 Coefficients=  4.4087173314D-01
 S 1 1.00
     Exponent=  4.0245147363D-01 Coefficients=  1.0000000000D+00
 S 1 1.00
     Exponent=  1.3090182668D-01 Coefficients=  1.0000000000D+00
 P 3 1.00
     Exponent=  9.4680970621D+00 Coefficients=  3.8387871728D-02
     Exponent=  2.0103545142D+00 Coefficients=  2.1117025112D-01
     Exponent=  5.4771004707D-01 Coefficients=  5.1328172114D-01
 P 1 1.00
     Exponent=  1.5268613795D-01 Coefficients=  1.0000000000D+00
 D 1 1.00
     Exponent=  8.0000000000D-01 Coefficients=  1.0000000000D+00
 ****
 Centers:      52     53     54     55
 S 5 1.00
     Exponent=  1.7128415853D+03 Coefficients= -5.3934125305D-03
     Exponent=  2.5764812677D+02 Coefficients= -4.0221581118D-02
     Exponent=  5.8458245853D+01 Coefficients= -1.7931144990D-01
     Exponent=  1.6198367905D+01 Coefficients= -4.6376317823D-01
     Exponent=  5.0052600809D+00 Coefficients= -4.4171422662D-01
 S 1 1.00
     Exponent=  5.8731856571D-01 Coefficients=  1.0000000000D+00
 S 1 1.00
     Exponent=  1.8764592253D-01 Coefficients=  1.0000000000D+00
 P 3 1.00
     Exponent=  1.3571470233D+01 Coefficients= -4.0072398852D-02
     Exponent=  2.9257372874D+00 Coefficients= -2.1807045028D-01
     Exponent=  7.9927750754D-01 Coefficients= -5.1294466049D-01
 P 1 1.00
     Exponent=  2.1954348034D-01 Coefficients=  1.0000000000D+00
 D 1 1.00
     Exponent=  1.0000000000D+00 Coefficients=  1.0000000000D+00
 ****
 Centers:      15     16     17     18     19     23     24     25     26     27
 Centers:      28     59
 S 5 1.00
     Exponent=  2.2661767785D+03 Coefficients= -5.3431809926D-03
     Exponent=  3.4087010191D+02 Coefficients= -3.9890039230D-02
     Exponent=  7.7363135167D+01 Coefficients= -1.7853911985D-01
     Exponent=  2.1479644940D+01 Coefficients= -4.6427684959D-01
     Exponent=  6.6589433124D+00 Coefficients= -4.4309745172D-01
 S 1 1.00
     Exponent=  8.0975975668D-01 Coefficients=  1.0000000000D+00
 S 1 1.00
     Exponent=  2.5530772234D-01 Coefficients=  1.0000000000D+00
 P 3 1.00
     Exponent=  1.7721504317D+01 Coefficients=  4.3394573193D-02
     Exponent=  3.8635505440D+00 Coefficients=  2.3094120765D-01
     Exponent=  1.0480920883D+00 Coefficients=  5.1375311064D-01
 P 1 1.00
     Exponent=  2.7641544411D-01 Coefficients=  1.0000000000D+00
 D 1 1.00
     Exponent=  1.2000000000D+00 Coefficients=  1.0000000000D+00
 ****
 Centers:      32     33     34     35     36     37     38     39     40
 S 5 1.00
     Exponent=  2.8948325990D+03 Coefficients= -5.3408255515D-03
     Exponent=  4.3541939120D+02 Coefficients= -3.9904258866D-02
     Exponent=  9.8843328866D+01 Coefficients= -1.7912768038D-01
     Exponent=  2.7485198001D+01 Coefficients= -4.6758090825D-01
     Exponent=  8.5405498171D+00 Coefficients= -4.4653131020D-01
 S 1 1.00
     Exponent=  1.0654578038D+00 Coefficients=  1.0000000000D+00
 S 1 1.00
     Exponent=  3.3247346748D-01 Coefficients=  1.0000000000D+00
 P 3 1.00
     Exponent=  2.2696633924D+01 Coefficients= -4.5212874436D-02
     Exponent=  4.9872339257D+00 Coefficients= -2.3754317067D-01
     Exponent=  1.3491613954D+00 Coefficients= -5.1287353587D-01
 P 1 1.00
     Exponent=  3.4829881977D-01 Coefficients=  1.0000000000D+00
 D 1 1.00
     Exponent=  1.4000000000D+00 Coefficients=  1.0000000000D+00
 ****
 Centers:      20     21     22
 S 5 1.00
     Exponent=  9.1849303010D+03 Coefficients= -2.2294387756D-03
     Exponent=  1.3815105503D+03 Coefficients= -1.6683029937D-02
     Exponent=  3.1387147580D+02 Coefficients= -7.5262436116D-02
     Exponent=  8.8053870623D+01 Coefficients= -1.9376827038D-01
     Exponent=  2.7039914905D+01 Coefficients= -1.7718020803D-01
 S 3 1.00
     Exponent=  4.5648731303D+01 Coefficients= -1.0736062573D-01
     Exponent=  4.9664522326D+00 Coefficients=  6.5066293018D-01
     Exponent=  2.0116242047D+00 Coefficients=  5.9712155354D-01
 S 1 1.00
     Exponent=  3.5661077013D-01 Coefficients=  1.0000000000D+00
 S 1 1.00
     Exponent=  1.3507221477D-01 Coefficients=  1.0000000000D+00
 P 5 1.00
     Exponent=  2.6198233439D+02 Coefficients= -9.2729929822D-03
     Exponent=  6.1306894736D+01 Coefficients= -6.6547669241D-02
     Exponent=  1.9103729887D+01 Coefficients= -2.4828595903D-01
     Exponent=  6.6567720378D+00 Coefficients= -4.8703847402D-01
     Exponent=  2.3959635161D+00 Coefficients= -3.9337850312D-01
 P 1 1.00
     Exponent=  6.1776161679D-01 Coefficients=  1.0000000000D+00
 P 1 1.00
     Exponent=  1.6993376871D-01 Coefficients=  1.0000000000D+00
 D 1 1.00
     Exponent=  5.5000000000D-01 Coefficients=  1.0000000000D+00
 ****
 Centers:      58
 S 5 1.00
     Exponent=  9.5169767000D+04 Coefficients=  2.2000000000D-05
     Exponent=  1.5488403000D+04 Coefficients=  1.4500000000D-04
     Exponent=  3.7762335000D+03 Coefficients=  6.5100000000D-04
     Exponent=  1.0790501000D+03 Coefficients=  2.0380000000D-03
     Exponent=  2.6895380000D+02 Coefficients=  5.1270000000D-03
 S 1 1.00
     Exponent=  6.3467900000D+01 Coefficients=  1.0000000000D+00
 S 1 1.00
     Exponent=  4.5133200000D+01 Coefficients=  1.0000000000D+00
 S 1 1.00
     Exponent=  2.1456800000D+01 Coefficients=  1.0000000000D+00
 S 1 1.00
     Exponent=  5.3483000000D+00 Coefficients=  1.0000000000D+00
 S 1 1.00
     Exponent=  2.6778000000D+00 Coefficients=  1.0000000000D+00
 S 1 1.00
     Exponent=  1.0287000000D+00 Coefficients=  1.0000000000D+00
 S 1 1.00
     Exponent=  4.4080000000D-01 Coefficients=  1.0000000000D+00
 S 1 1.00
     Exponent=  7.9100000000D-02 Coefficients=  1.0000000000D+00
 S 1 1.00
     Exponent=  3.1300000000D-02 Coefficients=  1.0000000000D+00
 P 3 1.00
     Exponent=  1.2333733920D+01 Coefficients= -1.5313031066D-01
     Exponent=  1.1080331415D+01 Coefficients= -2.0300664852D-01
     Exponent=  2.0341747228D+00 Coefficients= -1.9458361263D-01
 P 6 1.00
     Exponent=  1.5005317313D+03 Coefficients= -1.0192569555D-03
     Exponent=  3.8239748937D+02 Coefficients= -5.9476212135D-03
     Exponent=  1.3299969628D+02 Coefficients= -1.6265160929D-02
     Exponent=  4.6110032419D+01 Coefficients= -3.5623845839D-02
     Exponent=  1.5583529011D+01 Coefficients=  2.3709171074D-01
     Exponent=  5.7856677022D+00 Coefficients= -3.0670977844D-01
 P 1 1.00
     Exponent=  3.7823361008D+00 Coefficients=  1.0000000000D+00
 P 1 1.00
     Exponent=  1.3682592248D+00 Coefficients=  1.0000000000D+00
 P 1 1.00
     Exponent=  5.7288205601D-01 Coefficients=  1.0000000000D+00
 P 1 1.00
     Exponent=  2.2793165135D-01 Coefficients=  1.0000000000D+00
 P 1 1.00
     Exponent=  8.1403917986D-02 Coefficients=  1.0000000000D+00
 P 1 1.00
     Exponent=  2.9091071778D-02 Coefficients=  1.0000000000D+00
 D 6 1.00
     Exponent=  4.8452750000D+02 Coefficients=  2.2860000000D-03
     Exponent=  1.4666550000D+02 Coefficients=  1.8629000000D-02
     Exponent=  5.6377900000D+01 Coefficients=  7.4088000000D-02
     Exponent=  2.3671100000D+01 Coefficients=  1.6155400000D-01
     Exponent=  9.4401000000D+00 Coefficients=  3.0809100000D-01
     Exponent=  4.3712000000D+00 Coefficients=  4.4833400000D-01
 D 1 1.00
     Exponent=  1.9580000000D+00 Coefficients=  1.0000000000D+00
 D 1 1.00
     Exponent=  7.2720000000D-01 Coefficients=  1.0000000000D+00
 D 1 1.00
     Exponent=  2.4600000000D-01 Coefficients=  1.0000000000D+00
 D 1 1.00
     Exponent=  7.4400000000D-02 Coefficients=  1.0000000000D+00
 F 5 1.00
     Exponent=  1.7515590000D+02 Coefficients=  4.1020000000D-03
     Exponent=  6.2890900000D+01 Coefficients=  3.9086000000D-02
     Exponent=  2.8362400000D+01 Coefficients=  1.4704400000D-01
     Exponent=  1.3247800000D+01 Coefficients=  2.7109200000D-01
     Exponent=  6.1440000000D+00 Coefficients=  3.4566500000D-01
 F 1 1.00
     Exponent=  2.7623000000D+00 Coefficients=  1.0000000000D+00
 F 1 1.00
     Exponent=  1.1574000000D+00 Coefficients=  1.0000000000D+00
 F 1 1.00
     Exponent=  4.2440000000D-01 Coefficients=  1.0000000000D+00
 G 1 1.00
     Exponent=  7.0090000000D-01 Coefficients=  1.0000000000D+00
 ****
 ======================================================================================================
                                       Pseudopotential Parameters
 ======================================================================================================
  Center     Atomic      Valence      Angular      Power
  Number     Number     Electrons     Momentum     of R      Exponent        Coefficient   SO-Coeffient
 ======================================================================================================
    1          6
                                   No pseudopotential on this center.
    2          6
                                   No pseudopotential on this center.
    3          6
                                   No pseudopotential on this center.
    4          6
                                   No pseudopotential on this center.
    5          6
                                   No pseudopotential on this center.
    6          6
                                   No pseudopotential on this center.
    7          6
                                   No pseudopotential on this center.
    8          6
                                   No pseudopotential on this center.
    9          6
                                   No pseudopotential on this center.
   10          1
                                   No pseudopotential on this center.
   11          1
                                   No pseudopotential on this center.
   12          1
                                   No pseudopotential on this center.
   13          1
                                   No pseudopotential on this center.
   14          1
                                   No pseudopotential on this center.
   15          8
                                   No pseudopotential on this center.
   16          8
                                   No pseudopotential on this center.
   17          8
                                   No pseudopotential on this center.
   18          8
                                   No pseudopotential on this center.
   19          8
                                   No pseudopotential on this center.
   20         16
                                   No pseudopotential on this center.
   21         16
                                   No pseudopotential on this center.
   22         16
                                   No pseudopotential on this center.
   23          8
                                   No pseudopotential on this center.
   24          8
                                   No pseudopotential on this center.
   25          8
                                   No pseudopotential on this center.
   26          8
                                   No pseudopotential on this center.
   27          8
                                   No pseudopotential on this center.
   28          8
                                   No pseudopotential on this center.
   29          6
                                   No pseudopotential on this center.
   30          6
                                   No pseudopotential on this center.
   31          6
                                   No pseudopotential on this center.
   32          9
                                   No pseudopotential on this center.
   33          9
                                   No pseudopotential on this center.
   34          9
                                   No pseudopotential on this center.
   35          9
                                   No pseudopotential on this center.
   36          9
                                   No pseudopotential on this center.
   37          9
                                   No pseudopotential on this center.
   38          9
                                   No pseudopotential on this center.
   39          9
                                   No pseudopotential on this center.
   40          9
                                   No pseudopotential on this center.
   41          6
                                   No pseudopotential on this center.
   42          1
                                   No pseudopotential on this center.
   43          6
                                   No pseudopotential on this center.
   44          6
                                   No pseudopotential on this center.
   45          6
                                   No pseudopotential on this center.
   46          6
                                   No pseudopotential on this center.
   47          6
                                   No pseudopotential on this center.
   48          6
                                   No pseudopotential on this center.
   49          1
                                   No pseudopotential on this center.
   50          1
                                   No pseudopotential on this center.
   51          1
                                   No pseudopotential on this center.
   52          7
                                   No pseudopotential on this center.
   53          7
                                   No pseudopotential on this center.
   54          7
                                   No pseudopotential on this center.
   55          7
                                   No pseudopotential on this center.
   56          6
                                   No pseudopotential on this center.
   57          1
                                   No pseudopotential on this center.
   58         71           43
                                      H and up 
                                                     2        1.0000000        0.00000000    0.00000000
                                      S - H
                                                     2       35.1620970      989.99558400    0.00000000
                                      P - H
                                                     2       19.4644020      278.86565200    0.00000000
                                      D - H
                                                     2       10.0068650       71.00917800    0.00000000
                                      F - H
                                                     2       23.5179320      -47.40589000    0.00000000
                                      G - H
                                                     2       29.4122380      -35.55714600    0.00000000
   59          8
                                   No pseudopotential on this center.
   60          6
                                   No pseudopotential on this center.
   61          1
                                   No pseudopotential on this center.
   62          1
                                   No pseudopotential on this center.
   63          1
                                   No pseudopotential on this center.
   64          6
                                   No pseudopotential on this center.
   65          1
                                   No pseudopotential on this center.
   66          1
                                   No pseudopotential on this center.
   67          1
                                   No pseudopotential on this center.
 ======================================================================================================
 Ernie: Thresh=  0.10000D-02 Tol=  0.10000D-05 Strict=F.
 There are   961 symmetry adapted cartesian basis functions of A   symmetry.
 There are   888 symmetry adapted basis functions of A   symmetry.
   888 basis functions,  1612 primitive gaussians,   961 cartesian basis functions
   222 alpha electrons      222 beta electrons
       nuclear repulsion energy     11008.9247884088 Hartrees.
 IExCor= 7252 DFT=T Ex+Corr=MN15 ExCW=0 ScaHFX=  0.440000
 ScaDFX=  1.000000  1.000000  1.000000  1.000000 ScalE2=  1.000000  1.000000
 IRadAn=      5 IRanWt=     -1 IRanGd=            0 ICorTp=0 IEmpDi=  4
 NAtoms=   67 NActive=   67 NUniq=   67 SFac= 1.00D+00 NAtFMM=   60 NAOKFM=T Big=T
 Integral buffers will be    131072 words long.
 Raffenetti 2 integral format.
 Two-electron integral symmetry is turned on.
 ------------------------------------------------------------------------------
 Polarizable Continuum Model (PCM)
 =================================
 Model                : PCM.
 Atomic radii         : SMD-Coulomb.
 Polarization charges : Total charges.
 Charge compensation  : None.
 Solution method      : On-the-fly selection.
 Cavity type          : VdW (van der Waals Surface) (Alpha=1.000).
 Cavity algorithm     : GePol (No added spheres)
                        Default sphere list used, NSphG=   67.
                        Lebedev-Laikov grids with approx.  5.0 points / Ang**2.
                        Smoothing algorithm: York/Karplus (Gamma=1.0000).
                        Polarization charges: spherical gaussians, with
                                              point-specific exponents (IZeta= 3).
                        Self-potential: point-specific (ISelfS= 7).
                        Self-field    : sphere-specific E.n sum rule (ISelfD= 2).
 1st derivatives      : Analytical E(r).r(x)/FMM algorithm (CHGder, D1EAlg=3).
                        Cavity 1st derivative terms included.
 Solvent              : DiChloroEthane, Eps=  10.125000 Eps(inf)=   2.087447
 ------------------------------------------------------------------------------
 GePol: Number of generator spheres                  =      67
 GePol: Total number of spheres                      =      67
 GePol: Number of exposed spheres                    =      66 ( 98.51%)
 GePol: Number of points                             =    4801
 GePol: Average weight of points                     =       0.13
 GePol: Minimum weight of points                     =   0.13D-09
 GePol: Maximum weight of points                     =    0.21501
 GePol: Number of points with low weight             =     289
 GePol: Fraction of low-weight points (<1% of avg)   =       6.02%
 GePol: Cavity surface area                          =    614.780 Ang**2
 GePol: Cavity volume                                =    739.699 Ang**3
 ------------------------------------------------------------------------------
 Atomic radii for non-electrostatic terms: SMD-CDS.
 ------------------------------------------------------------------------------
 PCM non-electrostatic energy =         0.0037731770 Hartrees.
 Nuclear repulsion after PCM non-electrostatic terms =    11008.9285615858 Hartrees.
 Leave Link  301 at Thu May  1 00:13:30 2025, MaxMem= 82678120448 cpu:               7.9 elap:               0.4
 (Enter /sysapps/ubuntu-applications/gaussian-new/avx/g16/l302.exe)
 NPDir=0 NMtPBC=     1 NCelOv=     1 NCel=       1 NClECP=     1 NCelD=      1
         NCelK=      1 NCelE2=     1 NClLst=     1 CellRange=     0.0.
 One-electron integrals computed using PRISM.
 One-electron integral symmetry used in STVInt
   1 Symmetry operations used in ECPInt.
 ECPInt:  NShTT=   73153 NPrTT=  279412 LenC2=   56231 LenP2D=  131362.
 LDataN:  DoStor=T MaxTD1= 9 Len=  602
 NBasis=   888 RedAO= T EigKep=  2.30D-04  NBF=   888
 NBsUse=   888 1.00D-06 EigRej= -1.00D+00 NBFU=   888
 Precomputing XC quadrature grid using
 IXCGrd= 4 IRadAn=           5 IRanWt=          -1 IRanGd=           0 AccXCQ= 0.00D+00.
 Defaulting to unpruned grid for atomic number  71.
 Generated NRdTot=       0 NPtTot=           0 NUsed=           0 NTot=          32
 NSgBfM=   915   905   912   912   915 MxSgAt=    67 MxSgA2=    67.
 Leave Link  302 at Thu May  1 00:13:32 2025, MaxMem= 82678120448 cpu:              56.6 elap:               2.5
 (Enter /sysapps/ubuntu-applications/gaussian-new/avx/g16/l303.exe)
 DipDrv:  MaxL=1.
 Leave Link  303 at Thu May  1 00:13:33 2025, MaxMem= 82678120448 cpu:              10.3 elap:               0.5
 (Enter /sysapps/ubuntu-applications/gaussian-new/avx/g16/l401.exe)
 ExpMin= 2.91D-02 ExpMax= 9.52D+04 ExpMxC= 1.55D+04 IAcc=3 IRadAn=         5 AccDes= 0.00D+00
 Harris functional with IExCor= 1009 and IRadAn=       5 diagonalized for initial guess.
 HarFok:  IExCor= 1009 AccDes= 0.00D+00 IRadAn=         5 IDoV= 1 UseB2=F ITyADJ=14
 ICtDFT=  3500011 ScaDFX=  1.000000  1.000000  1.000000  1.000000
[...]
 59989,-0.01917148,0.00414559,-0.00000061,0.00000471,-0.00000020,0.0000
 0720,-0.00000265,0.00000380,0.00000655,-0.00000097,0.00000434,0.000011
 12,-0.00000543,-0.00000739,-0.00021679,0.00004264,0.00006800,0.0042635
 6,0.00292787,-0.00484335,0.00038990,-0.00002925,-0.00045943,0.00016161
 ,-0.00006091,0.00008865,0.00003110,-0.00017213,-0.00014380,0.00008814,
 0.00020730,-0.00002734,-0.00012163,-0.00021907,0.00000633,-0.00018444,
 0.00006329,-0.00018514,-0.00000483,0.00019010,0.00015838,0.00004802,0.
 00017121,-0.00001762,0.00005021,0.00006989,0.00001510,0.00013908,-0.00
 002370,0.00009167,0.00003023,-0.00002724,0.00007485,0.00004020,-0.0001
 4337,-0.00010814,-0.00002526,-0.00004842,-0.00006559,-0.00005008,0.000
 07539,-0.00001413,-0.00007051,0.00000249,0.00001275,0.00004315,-0.0000
 7825,0.00003719,0.00000704,-0.00003424,0.00001880,0.00002306,-0.000013
 55,0.00000271,0.00002106,-0.00003577,-0.00001978,0.00002049,-0.0000021
 5,0.00000333,0.00002749,-0.00001999,-0.00000780,0.00003153,0.00001718,
 0.00000310,-0.00001032,0.00002397,-0.00001307,0.00000568,0.00003188,-0
 .00003196,-0.00002986,0.00003636,0.00000415,-0.00087217,-0.00038742,-0
 .00012648,0.00010371,0.00011743,0.00011814,0.00007051,-0.00007405,-0.0
 0007664,-0.00004555,0.00003680,-0.00002467,-0.00002728,-0.00009872,-0.
 00014374,0.00000583,0.00000094,-0.00001382,-0.00004760,0.00004653,-0.0
 0002594,0.00001141,-0.00000453,0.00003694,-0.00000229,-0.00000249,-0.0
 0000106,0.00000377,0.00000416,0.00000144,-0.00000034,0.00000262,-0.000
 00187,0.00003005,0.00000623,0.00002106,0.00005377,0.00010526,0.0000634
 0,0.00005648,0.00000972,-0.00000517,-0.00000221,-0.00002116,-0.0000573
 2,0.00000538,-0.00001983,0.00000748,-0.00000824,-0.00002119,0.00000782
 ,-0.00083607,0.00008759,0.00049174,-0.00073272,0.00014175,-0.00168953,
 -0.00013292,-0.00037813,-0.00019357,-0.00006318,0.00005976,-0.00006876
 ,-0.00002616,0.00001741,0.00000848,0.00002525,-0.00002170,0.00004991,0
 .02739094,-0.01972128,-0.05129007,-0.03218750,0.01966746,0.05060699,-0
 .00000719,0.00002432,0.00001579,0.00000970,-0.00000529,-0.00001586,0.0
 0000733,-0.00000779,0.00000197,0.00000855,0.00000014,0.00000615,-0.000
 00533,-0.00000097,0.00000180,-0.00000915,-0.00001334,0.00001155,-0.000
 33343,0.00069355,-0.00056125,-0.00019609,0.00031311,0.00026045,-0.0053
 6099,-0.01264488,-0.00084460,-0.00000030,0.00000125,-0.00000126,0.0000
 0301,-0.00000158,0.00000118,0.00000195,-0.00000004,0.00000067,0.000005
 07,-0.00000243,-0.00000052,0.00002059,0.00001430,0.00001988,-0.0011774
 7,0.00196821,0.00249639,0.00010813,-0.00011693,-0.00003306,-0.00001324
 ,0.00006864,-0.00002748,0.00000729,0.00005206,0.00001213,-0.00001587,-
 0.00004251,0.00000986,0.00001545,0.00006066,0.00001888,0.00002375,-0.0
 0013697,0.00007661,-0.00001357,-0.00006012,0.00000434,-0.00002344,-0.0
 0008032,0.00001570,-0.00001397,-0.00001886,-0.00001133,-0.00007113,0.0
 0004712,-0.00003610,0.00000604,0.00003638,-0.00004462,-0.00000804,0.00
 008697,0.00004424,0.00000616,0.00001171,0.00000369,-0.00001348,-0.0000
 4465,0.00005645,-0.00000100,-0.00001015,0.00000790,-0.00000873,0.00002
 015,-0.00000665,0.00000952,0.00003324,-0.00003597,0.00000189,0.0000099
 3,-0.00000681,0.00000008,0.00000505,-0.00001181,-0.00000198,0.00000542
 ,-0.00000930,-0.00000378,0.00001005,-0.00000033,0.00000542,0.00000352,
 -0.00000107,0.00000040,-0.00000776,0.00000133,-0.00000189,-0.00000750,
 0.00000722,0.00000734,-0.00000905,-0.00000220,-0.00032421,-0.00011263,
 -0.00021445,-0.00000756,-0.00000639,0.00004095,0.00026117,0.00001469,-
 0.00016168,-0.00004706,0.00001485,0.00004898,-0.00325950,-0.00090706,-
 0.00271151,0.00011616,-0.00005321,-0.00001502,-0.00012964,0.00005976,-
 0.00004127,-0.00007174,-0.00000354,0.00015637,-0.00000976,0.00004065,0
 .00000430,-0.00001269,-0.00000203,0.00000077,-0.00000531,-0.00000290,0
 .00001008,0.00002318,0.00000928,0.00000130,-0.00085651,-0.00021180,0.0
 0026655,-0.00001612,0.00002396,0.00031567,0.00015031,0.00002292,-0.000
 18355,-0.00114862,0.00048871,-0.00064804,-0.00063634,-0.00045291,0.000
 09115,0.00029466,0.00022541,-0.00019198,0.00079448,-0.00057283,0.00087
 455,-0.00001876,-0.00015205,-0.00005202,-0.00001761,0.00000973,-0.0000
 2888,0.00000622,0.00000622,0.00000160,0.00000568,-0.00000966,0.0000161
 4,-0.05494789,-0.07371017,0.00414970,0.00683494,0.02339330,-0.00229346
 ,0.06412802,0.00002373,-0.00000444,-0.00000126,0.00000413,0.00000936,0
 .00001318,-0.00000850,0.00000495,0.00000168,-0.00000524,0.00000008,-0.
 00000734,0.00000627,-0.00000161,0.00000169,-0.00000322,0.00001487,-0.0
 0001483,-0.00137197,0.00050932,0.00037838,0.00006668,0.00000244,-0.000
 10566,-0.00068663,-0.00315105,0.00133631,0.00000029,-0.00000155,0.0000
 0129,-0.00000270,-0.00000020,-0.00000061,-0.00000151,0.00000042,-0.000
 00028,-0.00000458,0.00000040,0.00000134,-0.00001171,-0.00001645,-0.000
 00746,0.00102352,-0.00029922,0.00018824,-0.00004340,0.00001702,-0.0000
 0952,0.00002271,0.00001724,0.00000076,0.00001129,0.00003466,-0.0000025
 7,-0.00001246,0.00001877,-0.00000165,0.00002530,0.00000124,-0.00002336
 ,-0.00001429,-0.00003836,-0.00000877,-0.00005191,-0.00004403,0.0000371
 5,-0.00000588,0.00001852,0.00000290,-0.00000516,0.00000073,0.00000512,
 -0.00000264,0.00001556,-0.00000072,0.00000337,0.00000822,0.00000158,0.
 00004791,0.00003485,-0.00002990,0.00001522,0.00000834,-0.00001179,-0.0
 0001658,-0.00000116,0.00000857,-0.00000520,-0.00000570,0.00000487,0.00
 001657,0.00000221,-0.00001166,0.00000518,0.00000398,-0.00000622,0.0000
 0897,0.00000217,0.00000038,0.00000384,-0.00000312,-0.00000447,0.000001
 18,0.00000236,-0.00000295,-0.00000008,0.00000267,-0.00000027,0.0000048
 7,0.00000450,0.00000035,-0.00000501,-0.00000310,0.00000173,-0.00000555
 ,-0.00000332,0.00000567,-0.00000664,0.00000272,0.00000415,0.00004252,-
 0.00006176,0.00006343,0.00003036,0.00001961,-0.00001619,0.00038458,0.0
 0004519,0.00034810,0.00005744,0.00003576,0.00001240,-0.00153129,-0.000
 76002,-0.00077435,0.00030414,-0.00024420,-0.00032510,-0.00042168,0.000
 19352,-0.00020872,0.00002005,0.00001296,0.00040179,0.00001273,-0.00001
 652,0.00000474,-0.00001556,-0.00002007,0.00000795,-0.00000917,-0.00001
 297,0.00000827,-0.00003114,-0.00001856,-0.00001454,-0.00067202,0.00022
 376,-0.00052455,-0.00019213,0.00053955,0.00038426,0.00051515,-0.000363
 66,-0.00045030,0.00018894,-0.00091472,-0.00039567,-0.00031355,-0.00173
 891,-0.00125746,-0.00003484,-0.00012025,0.00017339,0.00024043,0.000277
 94,-0.00014044,-0.00005395,-0.00005093,0.00000909,0.00000621,0.0000061
 6,-0.00001082,0.00000867,-0.00000641,-0.00000846,0.00001191,-0.0000049
 5,0.00000846,-0.07155175,-0.30320402,0.01682760,-0.00591863,-0.0137738
 7,0.00112389,0.07951298,0.32644624,-0.00003066,-0.00004093,0.00001180,
 -0.00000549,0.00000128,0.00000128,0.00000292,0.00000042,-0.00000288,-0
 .00000003,0.00000122,0.00000091,0.00000133,0.00000291,-0.00000029,-0.0
 0001099,-0.00000438,0.00000588,0.00056971,-0.00239435,-0.00513052,-0.0
 0137720,-0.00217753,0.00213225,0.00681941,0.02923508,0.00106222,0.0000
 0128,0.00000038,0.,0.00000021,0.00000082,-0.00000020,-0.00000037,-0.00
 000037,0.00000015,-0.00000109,0.00000005,0.00000034,0.00000030,0.00000
 140,-0.00001324,-0.00027042,-0.00200286,-0.00106743,0.00175036,0.00012
 312,-0.00042130,0.00007079,-0.00003888,0.00005790,0.00004463,-0.000110
 03,-0.00003501,0.00007359,0.00012123,0.00006277,-0.00010173,-0.0002004
 4,-0.00006170,-0.00009839,0.00003880,-0.00008898,-0.00005158,0.0001860
 2,0.00011665,0.00006946,0.00014666,0.00000671,0.00004500,0.00006340,0.
 00003013,0.00009856,-0.00001608,0.00007982,0.00001933,-0.00001241,0.00
 003855,0.00003834,-0.00020700,-0.00006531,-0.00001402,-0.00004305,-0.0
 0004122,-0.00002699,0.00005633,-0.00001769,-0.00004525,-0.00000176,0.0
 0000204,-0.00002693,-0.00011590,-0.00000367,0.00000221,-0.00002958,0.0
 0001808,0.00001417,-0.00001036,0.00000266,0.00001452,-0.00002637,-0.00
 001247,0.00001344,-0.00000112,0.00000205,0.00001585,-0.00001057,-0.000
 00415,0.00001836,0.00001159,0.00000307,0.00003215,0.00006287,0.0000118
 0,0.00001973,0.00003289,-0.00002286,-0.00001823,0.00003854,0.00001322,
 0.00010378,0.00026470,-0.00004663,0.00007516,0.00001841,0.00001538,-0.
 00015022,0.00007471,-0.00006890,0.00003594,-0.00003267,0.00005052,-0.0
 0171300,-0.00088556,-0.00201942,-0.00003305,-0.00014711,0.00019009,0.0
 0004016,-0.00007141,-0.00002850,0.00003084,0.00011124,-0.00012297,0.00
 000295,0.00001833,0.00002675,0.00000193,0.00000356,-0.00000637,0.00000
 320,-0.00001090,0.00000542,0.00000525,0.00001563,-0.00000422,0.0000425
 4,-0.00005258,0.00030667,0.00000294,0.00011151,-0.00033581,-0.00008852
 ,-0.00013128,0.00006115,-0.00083878,-0.00073495,-0.00041484,0.00006379
 ,-0.00099525,-0.00047762,-0.00070501,-0.00009472,-0.00044230,-0.000864
 62,0.00013668,0.00097601,-0.00001542,0.00040748,0.00009522,0.00003975,
 -0.00002299,0.00005890,-0.00004130,0.00005479,-0.00005753,-0.00007236,
 0.00007197,-0.00001466,0.00618331,0.02230820,-0.04147412,-0.00146976,-
 0.00396614,-0.00033222,-0.00415004,-0.01808456,0.04486039,0.00001857,-
 0.00001320,0.00000452,-0.00000410,0.00000698,0.00001057,-0.00000683,0.
 00000544,-0.00000272,-0.00000867,0.00000299,-0.00000395,0.00000195,-0.
 00000452,-0.00001324,0.00000179,0.00001158,0.00001904,-0.00235081,-0.0
 0126477,0.00154065,0.00057138,-0.00054574,0.00006554,0.00867423,0.0036
 0587,0.01325698,-0.00000007,-0.00000174,0.00000147,-0.00000318,0.00000
 078,-0.00000169,-0.00000307,0.00000059,-0.00000174,-0.00000348,0.00000
 161,0.00000163,0.00004479,-0.00002859,0.00000394,0.00093935,0.00025870
 ,-0.00024884,-0.00001559,0.00002736,-0.00005470,0.00002441,0.00000631,
 -0.00001077,-0.00000745,0.00000125,-0.00001141,-0.00000312,0.00001880,
 -0.00002067,0.00000373,-0.00003267,0.00000509,-0.00006232,-0.00000098,
 0.00003611,0.00001094,0.00000101,0.00000373,-0.00000188,0.00001576,-0.
 00000909,-0.00000307,0.00000459,-0.00000441,0.00001976,-0.00000965,-0.
 00000845,0.00001674,0.00000494,-0.00002074,-0.00002348,0.00001992,0.00
 001422,0.00000121,-0.00000041,0.00000013,-0.00000183,-0.00000445,0.000
 01501,-0.00002574,-0.00000164,0.00000511,0.00001600,0.00000186,0.00000
 508,0.00000162,0.00000318,-0.00000678,-0.00000245,0.00000007,-0.000003
 86,-0.00000054,0.00000053,-0.00000342,0.00000934,0.00000078,-0.0000033
 6,0.00001282,-0.00000743,-0.00000516,0.00001410,0.00000794,-0.00000017
 ,-0.00000693,-0.00000453,-0.00000228,-0.00000307,0.00000180,-0.0000010
 9,-0.00000537,0.00000403,-0.00000002,0.00040514,0.00015962,0.00000366,
 -0.00006695,-0.00004900,-0.00006542,-0.00000541,0.00004126,0.00014865,
 0.00003227,-0.00000413,0.00000155,-0.00010329,0.00000981,0.00020847,-0
 .00000255,-0.00000261,-0.00002854,-0.00000305,-0.00000239,0.00000638,-
 0.00000124,-0.00000286,0.00001073,0.00000221,0.00000094,-0.00000224,-0
 .00000025,-0.00000297,0.00000073,-0.00000006,0.00000109,0.00000027,-0.
 00001941,-0.00000902,-0.00001068,-0.00010765,-0.00013898,-0.00022759,-
 0.00001306,0.00001608,0.00005146,0.00003126,-0.00000549,-0.00001112,-0
 .00003002,-0.00000380,0.00004421,0.00001020,0.00003782,-0.00002825,0.0
 0007685,-0.00000701,0.00017014,-0.00011425,0.00035191,-0.00130363,-0.0
 0007376,0.00004784,0.00016365,0.00001881,-0.00002227,0.00003701,0.0000
 0167,-0.00000218,-0.00000838,0.00001816,-0.00001363,0.00002511,-0.1767
 6360,-0.03683730,-0.14343008,-0.01026793,-0.00719543,-0.01552306,-0.00
 407309,0.00038946,-0.00414572,0.18320931,0.00000829,0.00002344,0.00000
 168,0.00000514,-0.00000218,-0.00000258,0.00000272,-0.00000516,0.000002
 84,0.00000379,-0.00000191,0.00000288,-0.00000118,0.00000221,0.00000671
 ,-0.00000191,-0.00001079,-0.00001141,-0.00046071,0.00091823,-0.0005732
 2,-0.00019070,-0.00003235,0.00089628,0.00382507,-0.00100747,0.00819188
 ,0.00000174,0.00000204,-0.00000084,0.00000120,-0.00000042,0.00000032,0
 .00000119,0.00000056,0.00000055,0.00000177,0.00000067,-0.00000091,-0.0
 0003637,0.00001721,-0.00000991,0.00068372,-0.00030828,-0.00092428,0.00
 042228,0.00005385,-0.00009246,-0.00001235,-0.00006650,0.00001848,0.000
 01163,-0.00003787,-0.00000850,0.00005459,0.00001687,-0.00002420,-0.000
 08884,-0.00004148,0.00005835,0.00001471,0.00014899,-0.00005033,-0.0000
 3041,0.00004759,-0.00000274,0.00003596,0.00000596,-0.00002451,0.000022
 97,0.00001559,-0.00000871,0.00004060,-0.00006883,0.00001735,-0.0000059
 0,-0.00003589,0.00003319,0.00002533,-0.00002996,0.00001155,0.00000846,
 -0.00000748,0.00000124,-0.00000844,0.00003266,-0.00003271,-0.00000117,
 0.00001340,-0.00001123,-0.00001063,-0.00002118,0.00003420,-0.00000138,
 -0.00002359,0.00002450,0.00000435,-0.00000698,0.00000640,0.00000394,-0
 .00000754,0.00000477,-0.00000135,-0.00000786,0.00001390,0.00000498,-0.
 00000997,0.00000108,-0.00000658,-0.00000790,0.00000009,0.00000199,0.00
 000837,-0.00000979,0.00001051,0.00001553,-0.00002164,0.00000596,0.0000
 0222,-0.00000811,-0.00028012,-0.00026593,0.00008038,0.00007741,0.00006
 258,0.00005551,0.00014501,0.00003996,0.00006087,-0.00001413,0.00000077
 ,-0.00000643,-0.00001313,-0.00001922,0.00011347,0.00005000,0.00000953,
 -0.00011321,-0.00013231,0.00006964,-0.00006656,0.00000296,-0.00001212,
 0.00012023,-0.00000786,-0.00002369,-0.00001494,-0.00000366,-0.00000528
 ,0.00000486,-0.00000056,-0.00000006,-0.00000713,0.00000045,-0.00000208
 ,0.00000160,-0.00009095,-0.00000102,-0.00010623,0.00001634,0.00007716,
 0.00017347,0.00015834,-0.00007311,-0.00012463,-0.00007933,0.00023557,0
 .00032266,0.00001565,0.00001878,-0.00011272,-0.00015519,0.00009802,-0.
 00009649,0.00033146,0.00008748,0.00110271,-0.00013332,-0.00024167,-0.0
 0007620,-0.00001298,0.00004173,-0.00003784,0.00000325,0.00001671,-0.00
 000802,0.00002597,-0.00001286,0.00004102,-0.03652034,-0.05295740,-0.04
 443424,0.00900316,0.00422701,0.01338042,-0.01787992,-0.00365313,-0.021
 04808,0.04114889,0.05269885,-0.00002319,-0.00005034,-0.00002097,-0.000
 01454,0.00000957,0.00001645,-0.00000455,0.00000495,-0.00000292,-0.0000
 0546,0.00000256,-0.00000377,0.00000073,-0.00000078,0.00000102,-0.00000
 768,0.00000719,-0.00000950,0.00409325,0.00148972,-0.00283988,-0.001958
 78,0.00045932,0.00027899,-0.02070204,-0.00612897,-0.02347556,0.0000033
 1,-0.00000051,0.00000234,-0.00000274,0.00000190,-0.00000121,-0.0000015
 9,0.00000063,-0.00000010,-0.00000342,0.00000189,0.00000130,-0.00000155
 ,-0.00000091,-0.00001528,-0.00149559,0.00015323,0.00526727,0.00090603,
 -0.00015765,0.00003813,-0.00001721,-0.00000146,0.00002795,0.00003307,-
 0.00000862,0.00001607,0.00001175,-0.00000194,0.00006887,-0.00000995,0.
 00000895,-0.00004589,0.00008570,-0.00004484,-0.00002813,-0.00004908,0.
 00003182,0.00001019,0.00000696,-0.00002899,0.00003860,0.00000541,0.000
 00004,0.00001615,-0.00004580,0.00003052,0.00002483,-0.00002110,0.00000
 366,0.00001201,0.00005052,-0.00002451,0.00002854,0.00001172,-0.0000030
 3,0.00000730,-0.00001425,0.00000954,-0.00002107,0.00003096,0.00000181,
 -0.00001485,-0.00003996,-0.00003808,-0.00004241,0.00000223,-0.00000737
 ,0.00001008,0.00001033,0.00000016,0.00000615,0.00000472,-0.00000418,0.
 00000202,-0.00000856,-0.00000042,0.00000708,-0.00001681,0.00001135,0.0
 0000765,-0.00001425,-0.00000704,0.00000132,0.00002909,0.00002925,0.000
 02145,0.00000817,0.00000152,0.00000791,0.00000122,0.00000603,0.0000121
 6,0.00021435,0.00025501,0.00020031,-0.00001073,-0.00000706,-0.00000029
 ,-0.00003332,-0.00005842,-0.00006730,0.00001889,-0.00001068,0.00002328
 ,0.00007354,0.00001323,-0.00011292,-0.00001242,0.00001558,0.00000202,-
 0.00000674,0.00001059,0.00001499,-0.00000372,0.00000047,-0.00000515,0.
 00000007,-0.00000485,0.00000016,-0.00000075,0.00000127,0.00000103,-0.0
 0000083,-0.00000053,-0.00000087,-0.00001213,-0.00000257,-0.00001136,0.
 00007280,0.00006402,0.00009073,0.00004072,0.00002690,0.00002891,-0.000
 01894,-0.00002614,0.00002029,0.00000338,0.00004510,-0.00005677,0.00000
 579,-0.00000301,0.00000531,-0.00019300,0.00019894,-0.00051853,-0.00001
 250,-0.00051865,0.00037639,0.00027674,0.00004361,-0.00034218,-0.000044
 00,0.00004227,-0.00006653,-0.00000134,-0.00002503,0.00004068,-0.000056
 58,0.00004466,-0.00009235,-0.13865579,-0.04243775,-0.19613973,0.004867
 22,0.00219801,0.00442394,0.00328979,0.00109375,0.00252828,0.14936244,0
 .04328534,0.21024739\\0.00000642,-0.00000621,0.00000752,-0.00000085,-0
 .00000386,-0.00000139,-0.00000198,-0.00000005,0.00000078,-0.00000009,-
 0.00000182,-0.00000119,-0.00000027,0.,-0.00000400,-0.00000072,0.000007
 60,0.00000126,0.00001651,0.00001194,-0.00003875,-0.00004462,-0.0000188
 2,0.00000461,0.00004535,0.00001171,-0.00001186,-0.00000069,-0.00000249
 ,0.00000028,-0.00000011,-0.00000394,-0.00000055,0.00000032,-0.00000017
 ,-0.00000188,0.00000022,0.00000230,-0.00000206,0.00000025,-0.00000076,
 -0.00000164,-0.00002551,-0.00002625,0.00001947,0.00003150,0.00000501,0
 .00001271,0.00001018,-0.00001227,0.00000896,-0.00000280,-0.00001975,0.
 00001153,-0.00001352,-0.00001454,0.00000682,0.00003333,-0.00001495,-0.
 00002632,0.00000316,0.00001021,-0.00002966,0.00004928,0.00002681,0.000
 00298,-0.00000020,0.00001397,0.00000835,0.00000064,0.00000522,-0.00000
 441,0.00001641,-0.00002229,0.00000031,-0.00001585,0.00000349,0.0000104
 2,-0.00001009,0.00000256,0.00003841,-0.00001765,-0.00000957,-0.0000113
 3,0.00000175,-0.00002065,-0.00000022,0.00001123,0.00001003,0.00002909,
 0.00000106,0.00000103,-0.00002845,0.00000512,-0.00000183,0.00000249,-0
 .00000190,0.00000629,0.00000685,-0.00000604,0.00000360,0.00000863,-0.0
 0000431,0.00001084,-0.00001446,0.00000279,-0.00000509,-0.00000144,-0.0
 0000191,-0.00000600,-0.00001348,0.00000517,-0.00000209,-0.00000119,-0.
 00001265,-0.00000847,0.00000035,-0.00000086,0.00000150,0.00000107,-0.0
 0002622,0.00000439,-0.00002036,0.00000055,-0.00000628,0.00000480,-0.00
 001558,-0.00002243,0.00001530,0.00001236,-0.00000794,-0.00000372,0.000
 00127,0.00001858,-0.00000500,0.00000118,0.00000253,0.00000721,0.000004
 08,-0.00000374,-0.00000314,-0.00000065,0.00000021,0.00000021,-0.000004
 90,-0.00000024,0.00000645,-0.00000251,-0.00000361,0.00000523,-0.000004
 82,-0.00000246,0.00000517,-0.00000109,-0.00000128,0.00000576,0.0000020
 7,-0.00000223,0.00000222,0.00000748,-0.00001406,0.00000189,-0.00001034
 ,0.00000246,0.00001201,-0.00000037,0.00001348,0.00000236,-0.00000406,0
 .00000545,0.00000927,-0.00005607,0.00006079,-0.00006537,0.00000258,0.0
 0001521,0.00002415,0.00002787,0.00002445,0.00003071,-0.00000171,-0.000
 00932,-0.00000743,-0.00000891,-0.00000667,-0.00001424,0.00000034,-0.00
 000929,-0.00000999,0.00000264,0.00001580,0.00000712,-0.00000217,-0.000
 00327,-0.00000388,-0.00000364,0.00000069,0.00000585,0.00000255,-0.0000
 0344,-0.00000116\\\@


 NOBODY LOSES ALL THE TIME
 I HAD AN UNCLE NAMED
 SOL WHO WAS A BORN FAILURE AND
 NEARLY EVERYBODY SAID HE SHOULD HAVE GONE
 INTO VAUDEVILLE PERHAPS BECAUSE MY UNCLE SOL COULD
 SING MCCANN HE WAS A DIVER ON XMAS EVE LIKE HELL ITSELF WHICH
 MAY OR MAY NOT ACCOUNT FOR THE FACT THAT MY UNCLE
 SOL INDULGED IN THAT POSSIBLY MOST INEXCUSABLE
 OF ALL TO USE A HIGHFALOOTIN PHRASE
 LUXURIES THAT IS OR TO
 WIT FARMING AND BE
 IT NEEDLESSLY
 ADDED
 MY UNCLE SOL'S FARM     
 FAILED BECAUSE THE CHICKENS
 ATE THE VEGETABLES SO
 MY UNCLE SOL HAD A
 CHICKEN FARM TILL THE
 SKUNKS ATE THE CHICKENS WHEN 
 MY UNCLE SOL
 HAD A SKUNK FARM BUT
 THE SKUNKS CAUGHT COLD AND
 DIED AND SO
 MY UNCLE SOL IMITATED THE
 SKUNKS IN A SUBTLE MANNER
 OR BY DROWNING HIMSELF IN THE WATERTANK
 BUT SOMEBODY WHO'D GIVEN MY UNCLE SOL A VICTOR     
 VICTROLA AND RECORDS WHILE HE LIVED PRESENTED TO
 HIM UPON THE AUSPICIOUS OCCASION OF HIS DECEASE A
 SCRUMPTIOUS NOT TO MENTION SPLENDIFEROUS FUNERAL WITH
 TALL BOYS IN BLACK GLOVES AND FLOWERS AND EVERYTHING AND
 I REMEMBER WE ALL CRIED LIKE THE MISSOURI
 WHEN MY UNCLE SOL'S COFFIN LURCHED BECAUSE     
 SOMEBODY PRESSED A BUTTON
 (AND DOWN WENT
 MY UNCLE
 SOL
 AND STARTED A WORM FARM)
           E. E. CUMMINGS
 Job cpu time:       1 days  7 hours 33 minutes 55.0 seconds.
 Elapsed time:       0 days  1 hours 19 minutes  2.1 seconds.
 File lengths (MBytes):  RWF=   6688 Int=      0 D2E=      0 Chk=     92 Scr=      8
 Normal termination of Gaussian 16 at Thu May  1 05:01:12 2025.
