 Entering Gaussian System, Link 0=/sysapps/ubuntu-applications/gaussian-new/avx/g16//g16
 Input=i3-minor.in
 Output=i3-minor.log
 Initial command:
 /sysapps/ubuntu-applications/gaussian-new/avx/g16/l1.exe "/data/temp-scratch/sgozem/306807/Gau-3313953.inp" -scrdir="/data/temp-scratch/sgozem/306807/"
 Entering Link 1 = /sysapps/ubuntu-applications/gaussian-new/avx/g16/l1.exe PID=   3313955.
  
 Copyright (c) 1988,1990,1992,1993,1995,1998,2003,2009,2016,
            Gaussian, Inc.  All Rights Reserved.
  
 This is part of the Gaussian(R) 16 program.  It is based on
 the Gaussian(R) 09 system (copyright 2009, Gaussian, Inc.),
 the Gaussian(R) 03 system (copyright 2003, Gaussian, Inc.),
 the Gaussian(R) 98 system (copyright 1998, Gaussian, Inc.),
 the Gaussian(R) 94 system (copyright 1995, Gaussian, Inc.),
 the Gaussian 92(TM) system (copyright 1992, Gaussian, Inc.),
 the Gaussian 90(TM) system (copyright 1990, Gaussian, Inc.),
 the Gaussian 88(TM) system (copyright 1988, Gaussian, Inc.),
 the Gaussian 86(TM) system (copyright 1986, Carnegie Mellon
 University), and the Gaussian 82(TM) system (copyright 1983,
 Carnegie Mellon University). Gaussian is a federally registered
 trademark of Gaussian, Inc.
  
 This software contains proprietary and confidential information,
 including trade secrets, belonging to Gaussian, Inc.
  
 This software is provided under written license and may be
 used, copied, transmitted, or stored only in accord with that
 written license.
  
 The following legend is applicable only to US Government
 contracts under FAR:
  
                    RESTRICTED RIGHTS LEGEND
  
 Use, reproduction and disclosure by the US Government is
 subject to restrictions as set forth in subparagraphs (a)
 and (c) of the Commercial Computer Software - Restricted
 Rights clause in FAR 52.227-19.
  
 Gaussian, Inc.
 340 Quinnipiac St., Bldg. 40, Wallingford CT 06492
  
  
 ---------------------------------------------------------------
 Warning -- This program may not be used in any manner that
 competes with the business of Gaussian, Inc. or will provide
 assistance to any competitor of Gaussian, Inc.  The licensee
 of this program is prohibited from giving any competitor of
 Gaussian, Inc. access to this program.  By using this program,
 the user acknowledges that Gaussian, Inc. is engaged in the
 business of creating and licensing software in the field of
 computational chemistry and represents and warrants to the
 licensee that it is not a competitor of Gaussian, Inc. and that
 it will not use this program in any manner prohibited above.
 ---------------------------------------------------------------
  

 Cite this work as:
 Gaussian 16, Revision A.03,
 M. J. Frisch, G. W. Trucks, H. B. Schlegel, G. E. Scuseria, 
 M. A. Robb, J. R. Cheeseman, G. Scalmani, V. Barone, 
 G. A. Petersson, H. Nakatsuji, X. Li, M. Caricato, A. V. Marenich, 
 J. Bloino, B. G. Janesko, R. Gomperts, B. Mennucci, H. P. Hratchian, 
 J. V. Ortiz, A. F. Izmaylov, J. L. Sonnenberg, D. Williams-Young, 
 F. Ding, F. Lipparini, F. Egidi, J. Goings, B. Peng, A. Petrone, 
 T. Henderson, D. Ranasinghe, V. G. Zakrzewski, J. Gao, N. Rega, 
 G. Zheng, W. Liang, M. Hada, M. Ehara, K. Toyota, R. Fukuda, 
 J. Hasegawa, M. Ishida, T. Nakajima, Y. Honda, O. Kitao, H. Nakai, 
 T. Vreven, K. Throssell, J. A. Montgomery, Jr., J. E. Peralta, 
 F. Ogliaro, M. J. Bearpark, J. J. Heyd, E. N. Brothers, K. N. Kudin, 
 V. N. Staroverov, T. A. Keith, R. Kobayashi, J. Normand, 
 K. Raghavachari, A. P. Rendell, J. C. Burant, S. S. Iyengar, 
 J. Tomasi, M. Cossi, J. M. Millam, M. Klene, C. Adamo, R. Cammi, 
 J. W. Ochterski, R. L. Martin, K. Morokuma, O. Farkas, 
 J. B. Foresman, and D. J. Fox, Gaussian, Inc., Wallingford CT, 2016.
 
 ******************************************
 Gaussian 16:  ES64L-G16RevA.03 25-Dec-2016
                 1-May-2025 
 ******************************************
 %chk=i3-minor.chk
 %mem=92Gb
 %nprocshared=24
 Will use up to   24 processors via shared memory.
 ----------------------------------------------------------------------
 #P UMN15/genecp scf=(maxcyc=500) opt freq scrf=(smd,solvent=DiChloroEt
 hane)
 ----------------------------------------------------------------------
 1/18=20,19=15,26=3,38=1/1,3;
 2/9=110,12=2,17=6,18=5,40=1/2;
 3/5=7,11=2,16=1,17=8,25=1,30=1,70=32201,71=1,72=10,74=-73,116=2/1,2,3;
 4//1;
 5/5=2,7=500,38=5,53=10/2;
 6/7=2,8=2,9=2,10=2,28=1/1;
 7//1,2,3,16;
 1/18=20,19=15,26=3/3(2);
 2/9=110/2;
 99//99;
 2/9=110/2;
 3/5=7,6=1,11=2,16=1,17=8,25=1,30=1,70=32205,71=1,72=10,74=-73,82=7,116=2/1,2,3;
 4/5=5,16=3,69=1/1;
 5/5=2,7=500,38=5,53=10/2;
 7//1,2,3,16;
 1/18=20,19=15,26=3/3(-5);
 2/9=110/2;
 6/7=2,8=2,9=2,10=2,19=2,28=1/1;
 99/9=1/99;
 Leave Link    1 at Thu May  1 06:08:08 2025, MaxMem= 12348030976 cpu:               4.4 elap:               0.3
 (Enter /sysapps/ubuntu-applications/gaussian-new/avx/g16/l101.exe)
 ---
 Opt
 ---
 Symbolic Z-matrix:
 Charge =  0 Multiplicity = 1
 C                     2.2121   -1.01048  -0.68944 
 C                     1.8345   -0.16479   0.54829 
 C                     0.93933  -1.69217  -1.21251 
 O                    -0.03556  -1.02091  -1.54976 
 O                     0.75614   0.4207    0.63769 
 O                     2.74299  -0.10364   1.45883 
 O                     0.99044  -2.97355  -1.3236 
 C                     2.49832   0.7341    2.60617 
 C                    -0.19541  -3.64069  -1.80941 
 H                     3.44466   0.77785   3.15358 
 H                     1.71001   0.27487   3.21638 
 H                     2.18817   1.73138   2.26723 
 H                     0.02605  -4.71067  -1.7728 
 H                    -0.39772  -3.31542  -2.83773 
 H                    -1.04158  -3.38852  -1.1561 
 O                    -3.00042  -1.41477  -0.57203 
 O                    -1.70469  -0.16865   2.11918 
 O                    -0.83568   2.27305  -0.85374 
 S                    -2.02651   2.94634  -0.24476 
 S                    -3.31946  -0.97517  -1.97345 
 S                    -0.97647  -1.46312   2.33287 
 O                    -2.81791   1.83792   0.38277 
 O                    -2.72761   3.92753  -1.0248 
 O                    -2.51876   0.27023  -2.17373 
 O                    -3.27873  -1.98234  -3.00068 
 O                    -0.60326  -1.94377   0.97113 
 O                     0.05412  -1.48051   3.34298 
 C                    -2.27794  -2.62856   2.9128 
 C                    -5.06526  -0.40115  -1.87408 
 C                    -1.33329   3.81145   1.22822 
 F                    -1.77026  -3.84604   2.93507 
 F                    -3.30753  -2.58755   2.09404 
 F                    -2.65286  -2.27706   4.12641 
 F                    -5.18395   0.48266  -0.90402 
 F                    -5.83872  -1.44106  -1.62957 
 F                    -5.40054   0.14705  -3.02489 
 F                    -0.50638   2.98417   1.84963 
 F                    -2.31744   4.14467   2.03763 
 F                    -0.68305   4.89432   0.84888 
 C                     3.73621   0.58852  -1.75799 
 C                     4.88858  -0.44231  -1.574 
 C                     6.221     0.18981  -1.53598 
 C                     4.88282  -1.32127  -2.78052 
 C                     3.25135  -2.88538   0.76654 
 C                     5.29643  -1.9256    1.65265 
 C                     4.16724  -2.84643   1.74426 
 H                     2.3997   -3.56827   0.79569 
 H                     6.03056  -1.85289   2.45825 
 H                     4.08872  -3.50065   2.61405 
 N                     7.25785   0.69735  -1.60497 
 N                     4.86849  -2.01227  -3.70837 
 N                     4.62459  -1.2483   -0.40031 
 N                     5.49903  -1.1844    0.62082 
 C                     3.37488  -2.00311  -0.44491 
 H                     3.37425  -2.63578  -1.3551 
 H                     3.80978   0.99716  -2.77678 
 C                     3.6633    1.74457  -0.77621 
 C                     2.55114   2.58555  -0.93521 
 C                     4.59253   2.02344   0.23427 
 C                     2.37777   3.69881  -0.11443 
 H                     1.81114   2.35852  -1.70722 
 C                     4.42839   3.15319   1.04117 
 H                     5.43839   1.36175   0.42753 
 C                     3.32796   3.99478   0.86708 
 H                     1.50486   4.33868  -0.25274 
 H                     5.16413   3.36523   1.81987 
 H                     3.20421   4.87411   1.50313 
 Lu                   -1.3662    0.13094  -0.1299 
 O                     2.52509  -0.16426  -1.78156 
 
 ITRead=  0  0  0  0  0  0  0  0  0  0  0  0  0  0  0  0  0  0  0  0
 ITRead=  0  0  0  0  0  0  0  0  0  0  0  0  0  0  0  0  0  0  0  0
 ITRead=  0  0  0  0  0  0  0  0  0  0  0  0  0  0  0  0  0  0  0  0
 ITRead=  0  0  0  0  0  0  0  0  0
 MicOpt= -1 -1 -1 -1 -1 -1 -1 -1 -1 -1 -1 -1 -1 -1 -1 -1 -1 -1 -1 -1
 MicOpt= -1 -1 -1 -1 -1 -1 -1 -1 -1 -1 -1 -1 -1 -1 -1 -1 -1 -1 -1 -1
 MicOpt= -1 -1 -1 -1 -1 -1 -1 -1 -1 -1 -1 -1 -1 -1 -1 -1 -1 -1 -1 -1
 MicOpt= -1 -1 -1 -1 -1 -1 -1 -1 -1
 NAtoms=     69 NQM=       69 NQMF=       0 NMMI=      0 NMMIF=      0
                NMic=       0 NMicF=      0.
                    Isotopes and Nuclear Properties:
 (Nuclear quadrupole moments (NQMom) in fm**2, nuclear magnetic moments (NMagM)
  in nuclear magnetons)

  Atom         1           2           3           4           5           6           7           8           9          10
 IAtWgt=          12          12          12          16          16          16          16          12          12           1
 AtmWgt=  12.0000000  12.0000000  12.0000000  15.9949146  15.9949146  15.9949146  15.9949146  12.0000000  12.0000000   1.0078250
 NucSpn=           0           0           0           0           0           0           0           0           0           1
 AtZEff=  -0.0000000  -0.0000000  -0.0000000  -0.0000000  -0.0000000  -0.0000000  -0.0000000  -0.0000000  -0.0000000  -0.0000000
 NQMom=    0.0000000   0.0000000   0.0000000   0.0000000   0.0000000   0.0000000   0.0000000   0.0000000   0.0000000   0.0000000
 NMagM=    0.0000000   0.0000000   0.0000000   0.0000000   0.0000000   0.0000000   0.0000000   0.0000000   0.0000000   2.7928460
 AtZNuc=   6.0000000   6.0000000   6.0000000   8.0000000   8.0000000   8.0000000   8.0000000   6.0000000   6.0000000   1.0000000

  Atom        11          12          13          14          15          16          17          18          19          20
 IAtWgt=           1           1           1           1           1          16          16          16          32          32
 AtmWgt=   1.0078250   1.0078250   1.0078250   1.0078250   1.0078250  15.9949146  15.9949146  15.9949146  31.9720718  31.9720718
 NucSpn=           1           1           1           1           1           0           0           0           0           0
 AtZEff=  -0.0000000  -0.0000000  -0.0000000  -0.0000000  -0.0000000  -0.0000000  -0.0000000  -0.0000000  -0.0000000  -0.0000000
 NQMom=    0.0000000   0.0000000   0.0000000   0.0000000   0.0000000   0.0000000   0.0000000   0.0000000   0.0000000   0.0000000
 NMagM=    2.7928460   2.7928460   2.7928460   2.7928460   2.7928460   0.0000000   0.0000000   0.0000000   0.0000000   0.0000000
 AtZNuc=   1.0000000   1.0000000   1.0000000   1.0000000   1.0000000   8.0000000   8.0000000   8.0000000  16.0000000  16.0000000

  Atom        21          22          23          24          25          26          27          28          29          30
 IAtWgt=          32          16          16          16          16          16          16          12          12          12
 AtmWgt=  31.9720718  15.9949146  15.9949146  15.9949146  15.9949146  15.9949146  15.9949146  12.0000000  12.0000000  12.0000000
 NucSpn=           0           0           0           0           0           0           0           0           0           0
 AtZEff=  -0.0000000  -0.0000000  -0.0000000  -0.0000000  -0.0000000  -0.0000000  -0.0000000  -0.0000000  -0.0000000  -0.0000000
 NQMom=    0.0000000   0.0000000   0.0000000   0.0000000   0.0000000   0.0000000   0.0000000   0.0000000   0.0000000   0.0000000
 NMagM=    0.0000000   0.0000000   0.0000000   0.0000000   0.0000000   0.0000000   0.0000000   0.0000000   0.0000000   0.0000000
 AtZNuc=  16.0000000   8.0000000   8.0000000   8.0000000   8.0000000   8.0000000   8.0000000   6.0000000   6.0000000   6.0000000

  Atom        31          32          33          34          35          36          37          38          39          40
 IAtWgt=          19          19          19          19          19          19          19          19          19          12
 AtmWgt=  18.9984032  18.9984032  18.9984032  18.9984032  18.9984032  18.9984032  18.9984032  18.9984032  18.9984032  12.0000000
 NucSpn=           1           1           1           1           1           1           1           1           1           0
 AtZEff=  -0.0000000  -0.0000000  -0.0000000  -0.0000000  -0.0000000  -0.0000000  -0.0000000  -0.0000000  -0.0000000  -0.0000000
 NQMom=    0.0000000   0.0000000   0.0000000   0.0000000   0.0000000   0.0000000   0.0000000   0.0000000   0.0000000   0.0000000
 NMagM=    2.6288670   2.6288670   2.6288670   2.6288670   2.6288670   2.6288670   2.6288670   2.6288670   2.6288670   0.0000000
 AtZNuc=   9.0000000   9.0000000   9.0000000   9.0000000   9.0000000   9.0000000   9.0000000   9.0000000   9.0000000   6.0000000

  Atom        41          42          43          44          45          46          47          48          49          50
 IAtWgt=          12          12          12          12          12          12           1           1           1          14
 AtmWgt=  12.0000000  12.0000000  12.0000000  12.0000000  12.0000000  12.0000000   1.0078250   1.0078250   1.0078250  14.0030740
 NucSpn=           0           0           0           0           0           0           1           1           1           2
 AtZEff=  -0.0000000  -0.0000000  -0.0000000  -0.0000000  -0.0000000  -0.0000000  -0.0000000  -0.0000000  -0.0000000  -0.0000000
 NQMom=    0.0000000   0.0000000   0.0000000   0.0000000   0.0000000   0.0000000   0.0000000   0.0000000   0.0000000   2.0440000
 NMagM=    0.0000000   0.0000000   0.0000000   0.0000000   0.0000000   0.0000000   2.7928460   2.7928460   2.7928460   0.4037610
 AtZNuc=   6.0000000   6.0000000   6.0000000   6.0000000   6.0000000   6.0000000   1.0000000   1.0000000   1.0000000   7.0000000

  Atom        51          52          53          54          55          56          57          58          59          60
 IAtWgt=          14          14          14          12           1           1          12          12          12          12
 AtmWgt=  14.0030740  14.0030740  14.0030740  12.0000000   1.0078250   1.0078250  12.0000000  12.0000000  12.0000000  12.0000000
 NucSpn=           2           2           2           0           1           1           0           0           0           0
 AtZEff=  -0.0000000  -0.0000000  -0.0000000  -0.0000000  -0.0000000  -0.0000000  -0.0000000  -0.0000000  -0.0000000  -0.0000000
 NQMom=    2.0440000   2.0440000   2.0440000   0.0000000   0.0000000   0.0000000   0.0000000   0.0000000   0.0000000   0.0000000
 NMagM=    0.4037610   0.4037610   0.4037610   0.0000000   2.7928460   2.7928460   0.0000000   0.0000000   0.0000000   0.0000000
 AtZNuc=   7.0000000   7.0000000   7.0000000   6.0000000   1.0000000   1.0000000   6.0000000   6.0000000   6.0000000   6.0000000

  Atom        61          62          63          64          65          66          67          68          69
 IAtWgt=           1          12           1          12           1           1           1         175          16
 AtmWgt=   1.0078250  12.0000000   1.0078250  12.0000000   1.0078250   1.0078250   1.0078250 174.9409000  15.9949146
 NucSpn=           1           0           1           0           1           1           1           7           0
 AtZEff=  -0.0000000  -0.0000000  -0.0000000  -0.0000000  -0.0000000  -0.0000000  -0.0000000  -0.0000000  -0.0000000
 NQMom=    0.0000000   0.0000000   0.0000000   0.0000000   0.0000000   0.0000000   0.0000000 349.0000000   0.0000000
 NMagM=    2.7928460   0.0000000   2.7928460   0.0000000   2.7928460   2.7928460   2.7928460   2.2327000   0.0000000
 AtZNuc=   1.0000000   6.0000000   1.0000000   6.0000000   1.0000000   1.0000000   1.0000000  71.0000000   8.0000000
 Leave Link  101 at Thu May  1 06:08:09 2025, MaxMem= 12348030976 cpu:               8.2 elap:               0.6
 (Enter /sysapps/ubuntu-applications/gaussian-new/avx/g16/l103.exe)

 GradGradGradGradGradGradGradGradGradGradGradGradGradGradGradGradGradGrad
 Berny optimization.
 Initialization pass.
                           ----------------------------
                           !    Initial Parameters    !
                           ! (Angstroms and Degrees)  !
 --------------------------                            --------------------------
 ! Name  Definition              Value          Derivative Info.                !
 --------------------------------------------------------------------------------
 ! R1    R(1,2)                  1.5459         estimate D2E/DX2                !
 ! R2    R(1,3)                  1.5357         estimate D2E/DX2                !
 ! R3    R(1,54)                 1.5483         estimate D2E/DX2                !
 ! R4    R(1,69)                 1.4166         estimate D2E/DX2                !
 ! R5    R(2,5)                  1.2303         estimate D2E/DX2                !
 ! R6    R(2,6)                  1.2877         estimate D2E/DX2                !
 ! R7    R(3,4)                  1.2307         estimate D2E/DX2                !
 ! R8    R(3,7)                  1.2872         estimate D2E/DX2                !
 ! R9    R(4,68)                 2.2613         estimate D2E/DX2                !
 ! R10   R(5,68)                 2.2754         estimate D2E/DX2                !
 ! R11   R(6,8)                  1.4416         estimate D2E/DX2                !
 ! R12   R(7,9)                  1.4448         estimate D2E/DX2                !
 ! R13   R(8,10)                 1.0941         estimate D2E/DX2                !
 ! R14   R(8,11)                 1.0976         estimate D2E/DX2                !
 ! R15   R(8,12)                 1.098          estimate D2E/DX2                !
 ! R16   R(9,13)                 1.0933         estimate D2E/DX2                !
 ! R17   R(9,14)                 1.0973         estimate D2E/DX2                !
 ! R18   R(9,15)                 1.0984         estimate D2E/DX2                !
 ! R19   R(16,20)                1.503          estimate D2E/DX2                !
 ! R20   R(16,68)                2.2925         estimate D2E/DX2                !
 ! R21   R(17,21)                1.5005         estimate D2E/DX2                !
 ! R22   R(17,68)                2.294          estimate D2E/DX2                !
 ! R23   R(18,19)                1.4974         estimate D2E/DX2                !
 ! R24   R(18,68)                2.3225         estimate D2E/DX2                !
 ! R25   R(19,22)                1.4996         estimate D2E/DX2                !
 ! R26   R(19,23)                1.4362         estimate D2E/DX2                !
 ! R27   R(19,30)                1.8435         estimate D2E/DX2                !
 ! R28   R(19,68)                2.8941         estimate D2E/DX2                !
 ! R29   R(20,24)                1.4941         estimate D2E/DX2                !
 ! R30   R(20,25)                1.4392         estimate D2E/DX2                !
 ! R31   R(20,29)                1.8404         estimate D2E/DX2                !
 ! R32   R(20,68)                2.9047         estimate D2E/DX2                !
 ! R33   R(21,26)                1.4915         estimate D2E/DX2                !
 ! R34   R(21,27)                1.4432         estimate D2E/DX2                !
 ! R35   R(21,28)                1.8408         estimate D2E/DX2                !
 ! R36   R(21,68)                2.9594         estimate D2E/DX2                !
 ! R37   R(22,68)                2.2987         estimate D2E/DX2                !
 ! R38   R(24,68)                2.3505         estimate D2E/DX2                !
 ! R39   R(26,68)                2.4696         estimate D2E/DX2                !
 ! R40   R(28,31)                1.3193         estimate D2E/DX2                !
 ! R41   R(28,32)                1.3161         estimate D2E/DX2                !
 ! R42   R(28,33)                1.3179         estimate D2E/DX2                !
 ! R43   R(29,34)                1.3177         estimate D2E/DX2                !
 ! R44   R(29,35)                1.3189         estimate D2E/DX2                !
 ! R45   R(29,36)                1.3181         estimate D2E/DX2                !
 ! R46   R(30,37)                1.3245         estimate D2E/DX2                !
 ! R47   R(30,38)                1.3171         estimate D2E/DX2                !
 ! R48   R(30,39)                1.3188         estimate D2E/DX2                !
 ! R49   R(40,41)                1.5571         estimate D2E/DX2                !
 ! R50   R(40,56)                1.1002         estimate D2E/DX2                !
 ! R51   R(40,57)                1.5184         estimate D2E/DX2                !
 ! R52   R(40,69)                1.4262         estimate D2E/DX2                !
 ! R53   R(41,42)                1.4753         estimate D2E/DX2                !
 ! R54   R(41,43)                1.4927         estimate D2E/DX2                !
 ! R55   R(41,52)                1.448          estimate D2E/DX2                !
 ! R56   R(42,50)                1.1565         estimate D2E/DX2                !
 ! R57   R(43,51)                1.157          estimate D2E/DX2                !
 ! R58   R(44,46)                1.3403         estimate D2E/DX2                !
 ! R59   R(44,47)                1.092          estimate D2E/DX2                !
 ! R60   R(44,54)                1.5037         estimate D2E/DX2                !
 ! R61   R(45,46)                1.4599         estimate D2E/DX2                !
 ! R62   R(45,48)                1.0924         estimate D2E/DX2                !
 ! R63   R(45,53)                1.2865         estimate D2E/DX2                !
 ! R64   R(46,49)                1.0912         estimate D2E/DX2                !
 ! R65   R(52,53)                1.3459         estimate D2E/DX2                !
 ! R66   R(52,54)                1.4607         estimate D2E/DX2                !
 ! R67   R(54,55)                1.1085         estimate D2E/DX2                !
 ! R68   R(57,58)                1.4034         estimate D2E/DX2                !
 ! R69   R(57,59)                1.4008         estimate D2E/DX2                !
 ! R70   R(58,60)                1.3939         estimate D2E/DX2                !
 ! R71   R(58,61)                1.0932         estimate D2E/DX2                !
 ! R72   R(59,62)                1.398          estimate D2E/DX2                !
 ! R73   R(59,63)                1.0912         estimate D2E/DX2                !
 ! R74   R(60,64)                1.3978         estimate D2E/DX2                !
 ! R75   R(60,65)                1.0911         estimate D2E/DX2                !
 ! R76   R(62,64)                1.3963         estimate D2E/DX2                !
 ! R77   R(62,66)                1.0921         estimate D2E/DX2                !
 ! R78   R(64,67)                1.0923         estimate D2E/DX2                !
 ! A1    A(2,1,3)              108.2473         estimate D2E/DX2                !
 ! A2    A(2,1,54)             114.0617         estimate D2E/DX2                !
 ! A3    A(2,1,69)             110.1479         estimate D2E/DX2                !
 ! A4    A(3,1,54)             113.0569         estimate D2E/DX2                !
 ! A5    A(3,1,69)             100.7019         estimate D2E/DX2                !
 ! A6    A(54,1,69)            109.8038         estimate D2E/DX2                !
 ! A7    A(1,2,5)              122.1826         estimate D2E/DX2                !
 ! A8    A(1,2,6)              114.8222         estimate D2E/DX2                !
 ! A9    A(5,2,6)              122.9832         estimate D2E/DX2                !
 ! A10   A(1,3,4)              120.5131         estimate D2E/DX2                !
 ! A11   A(1,3,7)              116.0012         estimate D2E/DX2                !
 ! A12   A(4,3,7)              123.418          estimate D2E/DX2                !
 ! A13   A(3,4,68)             124.8812         estimate D2E/DX2                !
 ! A14   A(2,5,68)             137.0894         estimate D2E/DX2                !
 ! A15   A(2,6,8)              118.0758         estimate D2E/DX2                !
 ! A16   A(3,7,9)              117.1363         estimate D2E/DX2                !
 ! A17   A(6,8,10)             105.9399         estimate D2E/DX2                !
 ! A18   A(6,8,11)             108.7379         estimate D2E/DX2                !
 ! A19   A(6,8,12)             109.2735         estimate D2E/DX2                !
 ! A20   A(10,8,11)            111.0875         estimate D2E/DX2                !
 ! A21   A(10,8,12)            111.2495         estimate D2E/DX2                !
 ! A22   A(11,8,12)            110.4121         estimate D2E/DX2                !
 ! A23   A(7,9,13)             105.9266         estimate D2E/DX2                !
 ! A24   A(7,9,14)             109.2417         estimate D2E/DX2                !
 ! A25   A(7,9,15)             109.0449         estimate D2E/DX2                !
 ! A26   A(13,9,14)            111.0286         estimate D2E/DX2                !
 ! A27   A(13,9,15)            111.1514         estimate D2E/DX2                !
 ! A28   A(14,9,15)            110.3219         estimate D2E/DX2                !
 ! A29   A(18,19,22)           104.9242         estimate D2E/DX2                !
 ! A30   A(18,19,23)           118.327          estimate D2E/DX2                !
 ! A31   A(18,19,30)           103.7037         estimate D2E/DX2                !
 ! A32   A(22,19,23)           118.3355         estimate D2E/DX2                !
 ! A33   A(22,19,30)           102.1782         estimate D2E/DX2                !
 ! A34   A(23,19,30)           107.2723         estimate D2E/DX2                !
 ! A35   A(23,19,68)           142.8955         estimate D2E/DX2                !
 ! A36   A(30,19,68)           109.8162         estimate D2E/DX2                !
 ! A37   A(16,20,24)           104.7755         estimate D2E/DX2                !
 ! A38   A(16,20,25)           117.0542         estimate D2E/DX2                !
 ! A39   A(16,20,29)           104.0186         estimate D2E/DX2                !
 ! A40   A(24,20,25)           118.1964         estimate D2E/DX2                !
 ! A41   A(24,20,29)           104.8098         estimate D2E/DX2                !
 ! A42   A(25,20,29)           106.4782         estimate D2E/DX2                !
 ! A43   A(25,20,68)           134.4645         estimate D2E/DX2                !
 ! A44   A(29,20,68)           119.0013         estimate D2E/DX2                !
 ! A45   A(17,21,26)           105.6299         estimate D2E/DX2                !
 ! A46   A(17,21,27)           117.1698         estimate D2E/DX2                !
 ! A47   A(17,21,28)           104.355          estimate D2E/DX2                !
 ! A48   A(26,21,27)           117.158          estimate D2E/DX2                !
 ! A49   A(26,21,28)           105.101          estimate D2E/DX2                !
 ! A50   A(27,21,28)           106.0669         estimate D2E/DX2                !
 ! A51   A(27,21,68)           133.0782         estimate D2E/DX2                !
 ! A52   A(28,21,68)           120.6705         estimate D2E/DX2                !
 ! A53   A(21,28,31)           108.513          estimate D2E/DX2                !
 ! A54   A(21,28,32)           109.718          estimate D2E/DX2                !
 ! A55   A(21,28,33)           108.8066         estimate D2E/DX2                !
 ! A56   A(31,28,32)           109.8955         estimate D2E/DX2                !
 ! A57   A(31,28,33)           109.88           estimate D2E/DX2                !
 ! A58   A(32,28,33)           109.9994         estimate D2E/DX2                !
 ! A59   A(20,29,34)           109.5356         estimate D2E/DX2                !
 ! A60   A(20,29,35)           108.6858         estimate D2E/DX2                !
 ! A61   A(20,29,36)           108.8973         estimate D2E/DX2                !
 ! A62   A(34,29,35)           109.8501         estimate D2E/DX2                !
 ! A63   A(34,29,36)           109.932          estimate D2E/DX2                !
 ! A64   A(35,29,36)           109.915          estimate D2E/DX2                !
 ! A65   A(19,30,37)           108.4524         estimate D2E/DX2                !
 ! A66   A(19,30,38)           109.194          estimate D2E/DX2                !
 ! A67   A(19,30,39)           109.9308         estimate D2E/DX2                !
 ! A68   A(37,30,38)           109.6452         estimate D2E/DX2                !
 ! A69   A(37,30,39)           109.8753         estimate D2E/DX2                !
 ! A70   A(38,30,39)           109.7213         estimate D2E/DX2                !
 ! A71   A(41,40,56)           107.8087         estimate D2E/DX2                !
 ! A72   A(41,40,57)           117.5921         estimate D2E/DX2                !
 ! A73   A(41,40,69)           106.3198         estimate D2E/DX2                !
 ! A74   A(56,40,57)           108.613          estimate D2E/DX2                !
 ! A75   A(56,40,69)           103.741          estimate D2E/DX2                !
 ! A76   A(57,40,69)           111.8245         estimate D2E/DX2                !
 ! A77   A(40,41,42)           112.8188         estimate D2E/DX2                !
 ! A78   A(40,41,43)           106.9454         estimate D2E/DX2                !
 ! A79   A(40,41,52)           109.2293         estimate D2E/DX2                !
 ! A80   A(42,41,43)           106.0578         estimate D2E/DX2                !
 ! A81   A(42,41,52)           112.474          estimate D2E/DX2                !
 ! A82   A(43,41,52)           109.0666         estimate D2E/DX2                !
 ! A83   A(46,44,47)           122.1164         estimate D2E/DX2                !
 ! A84   A(46,44,54)           120.9649         estimate D2E/DX2                !
 ! A85   A(47,44,54)           116.9026         estimate D2E/DX2                !
 ! A86   A(46,45,48)           121.032          estimate D2E/DX2                !
 ! A87   A(46,45,53)           122.3793         estimate D2E/DX2                !
 ! A88   A(48,45,53)           116.5715         estimate D2E/DX2                !
 ! A89   A(44,46,45)           120.0729         estimate D2E/DX2                !
 ! A90   A(44,46,49)           120.9901         estimate D2E/DX2                !
 ! A91   A(45,46,49)           118.9359         estimate D2E/DX2                !
 ! A92   A(41,52,53)           118.0391         estimate D2E/DX2                !
 ! A93   A(41,52,54)           114.7629         estimate D2E/DX2                !
 ! A94   A(53,52,54)           127.1267         estimate D2E/DX2                !
 ! A95   A(45,53,52)           118.6096         estimate D2E/DX2                !
 ! A96   A(1,54,44)            116.212          estimate D2E/DX2                !
 ! A97   A(1,54,52)            108.4255         estimate D2E/DX2                !
 ! A98   A(1,54,55)            103.6395         estimate D2E/DX2                !
 ! A99   A(44,54,52)           110.4187         estimate D2E/DX2                !
 ! A100  A(44,54,55)           109.062          estimate D2E/DX2                !
 ! A101  A(52,54,55)           108.6934         estimate D2E/DX2                !
 ! A102  A(40,57,58)           114.9004         estimate D2E/DX2                !
 ! A103  A(40,57,59)           125.8818         estimate D2E/DX2                !
 ! A104  A(58,57,59)           119.2174         estimate D2E/DX2                !
 ! A105  A(57,58,60)           120.6937         estimate D2E/DX2                !
 ! A106  A(57,58,61)           119.4719         estimate D2E/DX2                !
 ! A107  A(60,58,61)           119.833          estimate D2E/DX2                !
 ! A108  A(57,59,62)           119.9571         estimate D2E/DX2                !
 ! A109  A(57,59,63)           121.4159         estimate D2E/DX2                !
 ! A110  A(62,59,63)           118.6097         estimate D2E/DX2                !
 ! A111  A(58,60,64)           119.8687         estimate D2E/DX2                !
 ! A112  A(58,60,65)           119.552          estimate D2E/DX2                !
 ! A113  A(64,60,65)           120.5756         estimate D2E/DX2                !
 ! A114  A(59,62,64)           120.5082         estimate D2E/DX2                !
 ! A115  A(59,62,66)           119.2993         estimate D2E/DX2                !
 ! A116  A(64,62,66)           120.1879         estimate D2E/DX2                !
 ! A117  A(60,64,62)           119.7148         estimate D2E/DX2                !
 ! A118  A(60,64,67)           120.1543         estimate D2E/DX2                !
 ! A119  A(62,64,67)           120.127          estimate D2E/DX2                !
 ! A120  A(4,68,5)              74.2062         estimate D2E/DX2                !
 ! A121  A(4,68,16)             87.4168         estimate D2E/DX2                !
 ! A122  A(4,68,17)            129.4864         estimate D2E/DX2                !
 ! A123  A(4,68,18)             98.0307         estimate D2E/DX2                !
 ! A124  A(4,68,19)            127.2196         estimate D2E/DX2                !
 ! A125  A(4,68,20)             78.6507         estimate D2E/DX2                !
 ! A126  A(4,68,21)             99.8263         estimate D2E/DX2                !
 ! A127  A(4,68,22)            152.8627         estimate D2E/DX2                !
 ! A128  A(4,68,24)             76.8648         estimate D2E/DX2                !
 ! A129  A(4,68,26)             70.7441         estimate D2E/DX2                !
 ! A130  A(5,68,16)            144.67           estimate D2E/DX2                !
 ! A131  A(5,68,17)             79.8355         estimate D2E/DX2                !
 ! A132  A(5,68,18)             76.9751         estimate D2E/DX2                !
 ! A133  A(5,68,19)             95.8727         estimate D2E/DX2                !
 ! A134  A(5,68,20)            152.8484         estimate D2E/DX2                !
 ! A135  A(5,68,21)             70.4295         estimate D2E/DX2                !
 ! A136  A(5,68,22)            114.7873         estimate D2E/DX2                !
 ! A137  A(5,68,24)            137.9988         estimate D2E/DX2                !
 ! A138  A(5,68,26)             70.6358         estimate D2E/DX2                !
 ! A139  A(16,68,17)            89.7619         estimate D2E/DX2                !
 ! A140  A(16,68,18)           136.4368         estimate D2E/DX2                !
 ! A141  A(16,68,19)           119.0535         estimate D2E/DX2                !
 ! A142  A(16,68,21)            83.7533         estimate D2E/DX2                !
 ! A143  A(16,68,22)            95.3654         estimate D2E/DX2                !
 ! A144  A(16,68,24)            61.4915         estimate D2E/DX2                !
 ! A145  A(16,68,26)            74.916          estimate D2E/DX2                !
 ! A146  A(17,68,18)           117.3685         estimate D2E/DX2                !
 ! A147  A(17,68,19)            97.6021         estimate D2E/DX2                !
 ! A148  A(17,68,20)           118.2476         estimate D2E/DX2                !
 ! A149  A(17,68,22)            77.5931         estimate D2E/DX2                !
 ! A150  A(17,68,24)           141.9858         estimate D2E/DX2                !
 ! A151  A(17,68,26)            59.9188         estimate D2E/DX2                !
 ! A152  A(18,68,20)           107.8796         estimate D2E/DX2                !
 ! A153  A(18,68,21)           136.5592         estimate D2E/DX2                !
 ! A154  A(18,68,22)            61.8919         estimate D2E/DX2                !
 ! A155  A(18,68,24)            77.6639         estimate D2E/DX2                !
 ! A156  A(18,68,26)           147.4838         estimate D2E/DX2                !
 ! A157  A(19,68,20)           101.0597         estimate D2E/DX2                !
 ! A158  A(19,68,21)           125.9497         estimate D2E/DX2                !
 ! A159  A(19,68,24)            78.2272         estimate D2E/DX2                !
 ! A160  A(19,68,26)           154.8847         estimate D2E/DX2                !
 ! A161  A(20,68,21)           114.3056         estimate D2E/DX2                !
 ! A162  A(20,68,22)            89.9801         estimate D2E/DX2                !
 ! A163  A(20,68,26)            99.8338         estimate D2E/DX2                !
 ! A164  A(21,68,22)           107.311          estimate D2E/DX2                !
 ! A165  A(21,68,24)           145.0931         estimate D2E/DX2                !
 ! A166  A(22,68,24)            80.8079         estimate D2E/DX2                !
 ! A167  A(22,68,26)           136.0153         estimate D2E/DX2                !
 ! A168  A(24,68,26)           126.0809         estimate D2E/DX2                !
 ! A169  A(1,69,40)            119.3525         estimate D2E/DX2                !
 ! A170  L(41,42,50,48,-1)     184.7621         estimate D2E/DX2                !
 ! A171  L(41,43,51,3,-1)      179.3542         estimate D2E/DX2                !
 ! A172  L(41,42,50,48,-2)     178.6165         estimate D2E/DX2                !
 ! A173  L(41,43,51,3,-2)      180.443          estimate D2E/DX2                !
 ! D1    D(3,1,2,5)            -35.1506         estimate D2E/DX2                !
 ! D2    D(3,1,2,6)            146.0724         estimate D2E/DX2                !
 ! D3    D(54,1,2,5)          -161.9375         estimate D2E/DX2                !
 ! D4    D(54,1,2,6)            19.2854         estimate D2E/DX2                !
 ! D5    D(69,1,2,5)            74.0721         estimate D2E/DX2                !
 ! D6    D(69,1,2,6)          -104.7049         estimate D2E/DX2                !
 ! D7    D(2,1,3,4)             58.1766         estimate D2E/DX2                !
 ! D8    D(2,1,3,7)           -124.7153         estimate D2E/DX2                !
 ! D9    D(54,1,3,4)          -174.4566         estimate D2E/DX2                !
 ! D10   D(54,1,3,7)             2.6515         estimate D2E/DX2                !
 ! D11   D(69,1,3,4)           -57.3805         estimate D2E/DX2                !
 ! D12   D(69,1,3,7)           119.7276         estimate D2E/DX2                !
 ! D13   D(2,1,54,44)           50.2152         estimate D2E/DX2                !
 ! D14   D(2,1,54,52)          -74.8072         estimate D2E/DX2                !
 ! D15   D(2,1,54,55)          169.8225         estimate D2E/DX2                !
 ! D16   D(3,1,54,44)          -74.0308         estimate D2E/DX2                !
 ! D17   D(3,1,54,52)          160.9468         estimate D2E/DX2                !
 ! D18   D(3,1,54,55)           45.5765         estimate D2E/DX2                !
 ! D19   D(69,1,54,44)         174.3904         estimate D2E/DX2                !
 ! D20   D(69,1,54,52)          49.368          estimate D2E/DX2                !
 ! D21   D(69,1,54,55)         -66.0023         estimate D2E/DX2                !
 ! D22   D(2,1,69,40)           71.2224         estimate D2E/DX2                !
 ! D23   D(3,1,69,40)         -174.65           estimate D2E/DX2                !
 ! D24   D(54,1,69,40)         -55.1987         estimate D2E/DX2                !
 ! D25   D(1,2,5,68)            29.4001         estimate D2E/DX2                !
 ! D26   D(6,2,5,68)          -151.9232         estimate D2E/DX2                !
 ! D27   D(1,2,6,8)            176.2034         estimate D2E/DX2                !
 ! D28   D(5,2,6,8)             -2.5626         estimate D2E/DX2                !
 ! D29   D(1,3,4,68)           -69.92           estimate D2E/DX2                !
 ! D30   D(7,3,4,68)           113.1942         estimate D2E/DX2                !
 ! D31   D(1,3,7,9)            179.8008         estimate D2E/DX2                !
 ! D32   D(4,3,7,9)             -3.1842         estimate D2E/DX2                !
 ! D33   D(3,4,68,5)            39.8341         estimate D2E/DX2                !
 ! D34   D(3,4,68,16)         -109.6477         estimate D2E/DX2                !
 ! D35   D(3,4,68,17)          -22.087          estimate D2E/DX2                !
 ! D36   D(3,4,68,18)          113.7861         estimate D2E/DX2                !
 ! D37   D(3,4,68,19)          125.1696         estimate D2E/DX2                !
 ! D38   D(3,4,68,20)         -139.4802         estimate D2E/DX2                !
 ! D39   D(3,4,68,21)          -26.4449         estimate D2E/DX2                !
 ! D40   D(3,4,68,22)          153.6224         estimate D2E/DX2                !
 ! D41   D(3,4,68,24)         -170.9569         estimate D2E/DX2                !
 ! D42   D(3,4,68,26)          -34.7282         estimate D2E/DX2                !
 ! D43   D(2,5,68,4)           -22.686          estimate D2E/DX2                !
 ! D44   D(2,5,68,16)           38.6257         estimate D2E/DX2                !
 ! D45   D(2,5,68,17)          113.5416         estimate D2E/DX2                !
 ! D46   D(2,5,68,18)         -125.0693         estimate D2E/DX2                !
 ! D47   D(2,5,68,19)         -149.7585         estimate D2E/DX2                !
 ! D48   D(2,5,68,20)          -21.2127         estimate D2E/DX2                !
 ! D49   D(2,5,68,21)           84.0994         estimate D2E/DX2                !
 ! D50   D(2,5,68,22)         -175.3165         estimate D2E/DX2                !
 ! D51   D(2,5,68,24)          -70.8451         estimate D2E/DX2                !
 ! D52   D(2,5,68,26)           52.0143         estimate D2E/DX2                !
 ! D53   D(2,6,8,10)          -170.4455         estimate D2E/DX2                !
 ! D54   D(2,6,8,11)            70.082          estimate D2E/DX2                !
 ! D55   D(2,6,8,12)           -50.5001         estimate D2E/DX2                !
 ! D56   D(3,7,9,13)          -176.6075         estimate D2E/DX2                !
 ! D57   D(3,7,9,14)            63.7331         estimate D2E/DX2                !
 ! D58   D(3,7,9,15)           -56.9066         estimate D2E/DX2                !
 ! D59   D(18,19,30,37)        -44.1273         estimate D2E/DX2                !
 ! D60   D(18,19,30,38)       -163.5622         estimate D2E/DX2                !
 ! D61   D(18,19,30,39)         76.02           estimate D2E/DX2                !
 ! D62   D(22,19,30,37)         64.7665         estimate D2E/DX2                !
 ! D63   D(22,19,30,38)        -54.6684         estimate D2E/DX2                !
 ! D64   D(22,19,30,39)       -175.0863         estimate D2E/DX2                !
 ! D65   D(23,19,30,37)       -170.0922         estimate D2E/DX2                !
 ! D66   D(23,19,30,38)         70.4729         estimate D2E/DX2                !
 ! D67   D(23,19,30,39)        -49.945          estimate D2E/DX2                !
 ! D68   D(68,19,30,37)         11.0142         estimate D2E/DX2                !
 ! D69   D(68,19,30,38)       -108.4207         estimate D2E/DX2                !
 ! D70   D(68,19,30,39)        131.1614         estimate D2E/DX2                !
 ! D71   D(23,19,68,4)          66.9379         estimate D2E/DX2                !
 ! D72   D(23,19,68,5)         141.5433         estimate D2E/DX2                !
 ! D73   D(23,19,68,16)        -43.9919         estimate D2E/DX2                !
 ! D74   D(23,19,68,17)       -137.9685         estimate D2E/DX2                !
 ! D75   D(23,19,68,20)        -17.1311         estimate D2E/DX2                !
 ! D76   D(23,19,68,21)       -148.417          estimate D2E/DX2                !
 ! D77   D(23,19,68,24)          3.6697         estimate D2E/DX2                !
 ! D78   D(23,19,68,26)       -162.9208         estimate D2E/DX2                !
 ! D79   D(30,19,68,4)        -114.8136         estimate D2E/DX2                !
 ! D80   D(30,19,68,5)         -40.2082         estimate D2E/DX2                !
 ! D81   D(30,19,68,16)        134.2566         estimate D2E/DX2                !
 ! D82   D(30,19,68,17)         40.28           estimate D2E/DX2                !
 ! D83   D(30,19,68,20)        161.1174         estimate D2E/DX2                !
 ! D84   D(30,19,68,21)         29.8315         estimate D2E/DX2                !
 ! D85   D(30,19,68,24)       -178.0818         estimate D2E/DX2                !
 ! D86   D(30,19,68,26)         15.3277         estimate D2E/DX2                !
 ! D87   D(16,20,29,34)         52.8532         estimate D2E/DX2                !
 ! D88   D(16,20,29,35)        -67.1701         estimate D2E/DX2                !
 ! D89   D(16,20,29,36)        173.1047         estimate D2E/DX2                !
 ! D90   D(24,20,29,34)        -56.8961         estimate D2E/DX2                !
 ! D91   D(24,20,29,35)       -176.9194         estimate D2E/DX2                !
 ! D92   D(24,20,29,36)         63.3555         estimate D2E/DX2                !
 ! D93   D(25,20,29,34)        177.0978         estimate D2E/DX2                !
 ! D94   D(25,20,29,35)         57.0745         estimate D2E/DX2                !
 ! D95   D(25,20,29,36)        -62.6507         estimate D2E/DX2                !
 ! D96   D(68,20,29,34)         -0.5665         estimate D2E/DX2                !
 ! D97   D(68,20,29,35)       -120.5897         estimate D2E/DX2                !
 ! D98   D(68,20,29,36)        119.6851         estimate D2E/DX2                !
 ! D99   D(25,20,68,4)          12.3818         estimate D2E/DX2                !
 ! D100  D(25,20,68,5)          10.9358         estimate D2E/DX2                !
 ! D101  D(25,20,68,17)       -116.552          estimate D2E/DX2                !
 ! D102  D(25,20,68,18)        107.2561         estimate D2E/DX2                !
 ! D103  D(25,20,68,19)        138.4946         estimate D2E/DX2                !
 ! D104  D(25,20,68,21)        -83.3772         estimate D2E/DX2                !
 ! D105  D(25,20,68,22)        167.5759         estimate D2E/DX2                !
 ! D106  D(25,20,68,26)        -55.5214         estimate D2E/DX2                !
 ! D107  D(29,20,68,4)        -170.7573         estimate D2E/DX2                !
 ! D108  D(29,20,68,5)        -172.2033         estimate D2E/DX2                !
 ! D109  D(29,20,68,17)         60.3089         estimate D2E/DX2                !
 ! D110  D(29,20,68,18)        -75.883          estimate D2E/DX2                !
 ! D111  D(29,20,68,19)        -44.6445         estimate D2E/DX2                !
 ! D112  D(29,20,68,21)         93.4836         estimate D2E/DX2                !
 ! D113  D(29,20,68,22)        -15.5632         estimate D2E/DX2                !
 ! D114  D(29,20,68,26)        121.3394         estimate D2E/DX2                !
 ! D115  D(17,21,28,31)        170.6887         estimate D2E/DX2                !
 ! D116  D(17,21,28,32)         50.6065         estimate D2E/DX2                !
 ! D117  D(17,21,28,33)        -69.782          estimate D2E/DX2                !
 ! D118  D(26,21,28,31)         59.7659         estimate D2E/DX2                !
 ! D119  D(26,21,28,32)        -60.3162         estimate D2E/DX2                !
 ! D120  D(26,21,28,33)        179.2952         estimate D2E/DX2                !
 ! D121  D(27,21,28,31)        -64.9638         estimate D2E/DX2                !
 ! D122  D(27,21,28,32)        174.9541         estimate D2E/DX2                !
 ! D123  D(27,21,28,33)         54.5655         estimate D2E/DX2                !
 ! D124  D(68,21,28,31)        119.3561         estimate D2E/DX2                !
 ! D125  D(68,21,28,32)         -0.7261         estimate D2E/DX2                !
 ! D126  D(68,21,28,33)       -121.1146         estimate D2E/DX2                !
 ! D127  D(27,21,68,4)          81.7372         estimate D2E/DX2                !
 ! D128  D(27,21,68,5)          12.5147         estimate D2E/DX2                !
 ! D129  D(27,21,68,16)        168.0119         estimate D2E/DX2                !
 ! D130  D(27,21,68,18)        -31.1609         estimate D2E/DX2                !
 ! D131  D(27,21,68,19)        -70.3813         estimate D2E/DX2                !
 ! D132  D(27,21,68,20)        163.6361         estimate D2E/DX2                !
 ! D133  D(27,21,68,22)        -98.295          estimate D2E/DX2                !
 ! D134  D(27,21,68,24)        162.831          estimate D2E/DX2                !
 ! D135  D(28,21,68,4)        -103.9499         estimate D2E/DX2                !
 ! D136  D(28,21,68,5)        -173.1724         estimate D2E/DX2                !
 ! D137  D(28,21,68,16)        -17.6753         estimate D2E/DX2                !
 ! D138  D(28,21,68,18)        143.152          estimate D2E/DX2                !
 ! D139  D(28,21,68,19)        103.9316         estimate D2E/DX2                !
 ! D140  D(28,21,68,20)        -22.051          estimate D2E/DX2                !
 ! D141  D(28,21,68,22)         76.0179         estimate D2E/DX2                !
 ! D142  D(28,21,68,24)        -22.8562         estimate D2E/DX2                !
 ! D143  D(56,40,41,42)         69.0136         estimate D2E/DX2                !
 ! D144  D(56,40,41,43)        -47.2124         estimate D2E/DX2                !
 ! D145  D(56,40,41,52)       -165.1137         estimate D2E/DX2                !
 ! D146  D(57,40,41,42)        -54.0889         estimate D2E/DX2                !
 ! D147  D(57,40,41,43)       -170.3148         estimate D2E/DX2                !
 ! D148  D(57,40,41,52)         71.7839         estimate D2E/DX2                !
 ! D149  D(69,40,41,42)        179.7469         estimate D2E/DX2                !
 ! D150  D(69,40,41,43)         63.5209         estimate D2E/DX2                !
 ! D151  D(69,40,41,52)        -54.3804         estimate D2E/DX2                !
 ! D152  D(41,40,57,58)       -175.7104         estimate D2E/DX2                !
 ! D153  D(41,40,57,59)          4.5123         estimate D2E/DX2                !
 ! D154  D(56,40,57,58)         61.5962         estimate D2E/DX2                !
 ! D155  D(56,40,57,59)       -118.1811         estimate D2E/DX2                !
 ! D156  D(69,40,57,58)        -52.2867         estimate D2E/DX2                !
 ! D157  D(69,40,57,59)        127.936          estimate D2E/DX2                !
 ! D158  D(41,40,69,1)          56.5746         estimate D2E/DX2                !
 ! D159  D(56,40,69,1)         170.132          estimate D2E/DX2                !
 ! D160  D(57,40,69,1)         -73.004          estimate D2E/DX2                !
 ! D161  D(40,41,52,53)       -117.456          estimate D2E/DX2                !
 ! D162  D(40,41,52,54)         59.6936         estimate D2E/DX2                !
 ! D163  D(42,41,52,53)          8.615          estimate D2E/DX2                !
 ! D164  D(42,41,52,54)       -174.2354         estimate D2E/DX2                !
 ! D165  D(43,41,52,53)        125.9826         estimate D2E/DX2                !
 ! D166  D(43,41,52,54)        -56.8679         estimate D2E/DX2                !
 ! D167  D(47,44,46,45)        179.3364         estimate D2E/DX2                !
 ! D168  D(47,44,46,49)         -0.2699         estimate D2E/DX2                !
 ! D169  D(54,44,46,45)          0.8401         estimate D2E/DX2                !
 ! D170  D(54,44,46,49)       -178.7662         estimate D2E/DX2                !
 ! D171  D(46,44,54,1)        -119.8189         estimate D2E/DX2                !
 ! D172  D(46,44,54,52)          4.1813         estimate D2E/DX2                !
 ! D173  D(46,44,54,55)        123.5525         estimate D2E/DX2                !
 ! D174  D(47,44,54,1)          61.6092         estimate D2E/DX2                !
 ! D175  D(47,44,54,52)       -174.3906         estimate D2E/DX2                !
 ! D176  D(47,44,54,55)        -55.0194         estimate D2E/DX2                !
 ! D177  D(48,45,46,44)        177.5842         estimate D2E/DX2                !
 ! D178  D(48,45,46,49)         -2.8015         estimate D2E/DX2                !
 ! D179  D(53,45,46,44)         -3.9728         estimate D2E/DX2                !
 ! D180  D(53,45,46,49)        175.6415         estimate D2E/DX2                !
 ! D181  D(46,45,53,52)          1.0407         estimate D2E/DX2                !
 ! D182  D(48,45,53,52)        179.5489         estimate D2E/DX2                !
 ! D183  D(41,52,53,45)       -177.9719         estimate D2E/DX2                !
 ! D184  D(54,52,53,45)          5.2748         estimate D2E/DX2                !
 ! D185  D(41,52,54,1)         -56.1125         estimate D2E/DX2                !
 ! D186  D(41,52,54,44)        175.5133         estimate D2E/DX2                !
 ! D187  D(41,52,54,55)         55.9191         estimate D2E/DX2                !
 ! D188  D(53,52,54,1)         120.7317         estimate D2E/DX2                !
 ! D189  D(53,52,54,44)         -7.6425         estimate D2E/DX2                !
 ! D190  D(53,52,54,55)       -127.2366         estimate D2E/DX2                !
 ! D191  D(40,57,58,60)       -178.8004         estimate D2E/DX2                !
 ! D192  D(40,57,58,61)          1.6285         estimate D2E/DX2                !
 ! D193  D(59,57,58,60)          0.9928         estimate D2E/DX2                !
 ! D194  D(59,57,58,61)       -178.5783         estimate D2E/DX2                !
 ! D195  D(40,57,59,62)        177.6968         estimate D2E/DX2                !
 ! D196  D(40,57,59,63)         -3.8379         estimate D2E/DX2                !
 ! D197  D(58,57,59,62)         -2.0717         estimate D2E/DX2                !
 ! D198  D(58,57,59,63)        176.3935         estimate D2E/DX2                !
 ! D199  D(57,58,60,64)          0.8505         estimate D2E/DX2                !
 ! D200  D(57,58,60,65)       -179.8481         estimate D2E/DX2                !
 ! D201  D(61,58,60,64)       -179.5799         estimate D2E/DX2                !
 ! D202  D(61,58,60,65)         -0.2785         estimate D2E/DX2                !
 ! D203  D(57,59,62,64)          1.3273         estimate D2E/DX2                !
 ! D204  D(57,59,62,66)       -179.4542         estimate D2E/DX2                !
 ! D205  D(63,59,62,64)       -177.1808         estimate D2E/DX2                !
 ! D206  D(63,59,62,66)          2.0377         estimate D2E/DX2                !
 ! D207  D(58,60,64,62)         -1.6097         estimate D2E/DX2                !
 ! D208  D(58,60,64,67)        179.1098         estimate D2E/DX2                !
 ! D209  D(65,60,64,62)        179.0962         estimate D2E/DX2                !
 ! D210  D(65,60,64,67)         -0.1843         estimate D2E/DX2                !
 ! D211  D(59,62,64,60)          0.5265         estimate D2E/DX2                !
 ! D212  D(59,62,64,67)        179.8072         estimate D2E/DX2                !
 ! D213  D(66,62,64,60)       -178.685          estimate D2E/DX2                !
 ! D214  D(66,62,64,67)          0.5957         estimate D2E/DX2                !
 --------------------------------------------------------------------------------
 Trust Radius=3.00D-01 FncErr=1.00D-07 GrdErr=1.00D-06 EigMax=2.50D+02 EigMin=1.00D-04
 Number of steps in this run=    414 maximum allowed number of steps=    414.
 GradGradGradGradGradGradGradGradGradGradGradGradGradGradGradGradGradGrad

 Leave Link  103 at Thu May  1 06:08:09 2025, MaxMem= 12348030976 cpu:               1.9 elap:               0.2
 (Enter /sysapps/ubuntu-applications/gaussian-new/avx/g16/l202.exe)
 Stoichiometry    C22H16F9LuN4O14S3
 Framework group  C1[X(C22H16F9LuN4O14S3)]
 Deg. of freedom   201
 Full point group                 C1      NOp   1
 Largest Abelian subgroup         C1      NOp   1
 Largest concise Abelian subgroup C1      NOp   1
                         Standard orientation:                         
 ---------------------------------------------------------------------
 Center     Atomic      Atomic             Coordinates (Angstroms)
 Number     Number       Type             X           Y           Z
 ---------------------------------------------------------------------
      1          6           0        2.212097   -1.010477   -0.689437
      2          6           0        1.834502   -0.164792    0.548286
      3          6           0        0.939330   -1.692168   -1.212506
      4          8           0       -0.035561   -1.020907   -1.549758
      5          8           0        0.756139    0.420703    0.637694
      6          8           0        2.742993   -0.103643    1.458830
      7          8           0        0.990439   -2.973553   -1.323598
      8          6           0        2.498317    0.734104    2.606174
      9          6           0       -0.195409   -3.640693   -1.809408
     10          1           0        3.444663    0.777850    3.153578
     11          1           0        1.710006    0.274868    3.216379
     12          1           0        2.188174    1.731380    2.267229
     13          1           0        0.026048   -4.710672   -1.772796
     14          1           0       -0.397724   -3.315416   -2.837725
     15          1           0       -1.041579   -3.388519   -1.156099
     16          8           0       -3.000419   -1.414770   -0.572027
     17          8           0       -1.704685   -0.168649    2.119180
     18          8           0       -0.835682    2.273054   -0.853742
     19         16           0       -2.026513    2.946336   -0.244761
     20         16           0       -3.319459   -0.975173   -1.973447
     21         16           0       -0.976474   -1.463122    2.332866
     22          8           0       -2.817910    1.837924    0.382768
     23          8           0       -2.727607    3.927529   -1.024801
     24          8           0       -2.518761    0.270227   -2.173728
     25          8           0       -3.278733   -1.982341   -3.000684
     26          8           0       -0.603255   -1.943774    0.971130
     27          8           0        0.054116   -1.480512    3.342978
     28          6           0       -2.277942   -2.628564    2.912795
     29          6           0       -5.065260   -0.401145   -1.874081
     30          6           0       -1.333292    3.811453    1.228219
     31          9           0       -1.770264   -3.846036    2.935068
     32          9           0       -3.307534   -2.587554    2.094039
     33          9           0       -2.652856   -2.277057    4.126410
     34          9           0       -5.183946    0.482664   -0.904020
     35          9           0       -5.838717   -1.441060   -1.629573
     36          9           0       -5.400536    0.147045   -3.024889
     37          9           0       -0.506378    2.984174    1.849630
     38          9           0       -2.317444    4.144670    2.037634
     39          9           0       -0.683052    4.894319    0.848875
     40          6           0        3.736209    0.588520   -1.757985
     41          6           0        4.888576   -0.442307   -1.573995
     42          6           0        6.220999    0.189808   -1.535980
     43          6           0        4.882820   -1.321267   -2.780515
     44          6           0        3.251351   -2.885377    0.766539
     45          6           0        5.296431   -1.925602    1.652646
     46          6           0        4.167240   -2.846433    1.744260
     47          1           0        2.399701   -3.568271    0.795694
     48          1           0        6.030563   -1.852892    2.458248
     49          1           0        4.088720   -3.500650    2.614050
     50          7           0        7.257851    0.697352   -1.604971
     51          7           0        4.868486   -2.012275   -3.708372
     52          7           0        4.624590   -1.248302   -0.400313
     53          7           0        5.499026   -1.184398    0.620817
     54          6           0        3.374880   -2.003112   -0.444908
     55          1           0        3.374247   -2.635782   -1.355095
     56          1           0        3.809779    0.997159   -2.776782
     57          6           0        3.663297    1.744569   -0.776211
     58          6           0        2.551140    2.585549   -0.935209
     59          6           0        4.592527    2.023442    0.234271
     60          6           0        2.377771    3.698813   -0.114432
     61          1           0        1.811143    2.358521   -1.707218
     62          6           0        4.428391    3.153188    1.041171
     63          1           0        5.438388    1.361749    0.427525
     64          6           0        3.327961    3.994779    0.867076
     65          1           0        1.504862    4.338680   -0.252742
     66          1           0        5.164131    3.365234    1.819874
     67          1           0        3.204208    4.874106    1.503127
     68         71           0       -1.366201    0.130943   -0.129895
     69          8           0        2.525092   -0.164261   -1.781559
 ---------------------------------------------------------------------
 Rotational constants (GHZ):           0.0704488           0.0407770           0.0365648
 Leave Link  202 at Thu May  1 06:08:09 2025, MaxMem= 12348030976 cpu:               2.8 elap:               0.2
 (Enter /sysapps/ubuntu-applications/gaussian-new/avx/g16/l301.exe)
 General basis read from cards:  (5D, 7F)
 Centers:      10     11     12     13     14     15     47     48     49     55
 Centers:      56     61     63     65     66     67
 S 3 1.00
     Exponent=  1.3010701000D+01 Coefficients=  1.9682158000D-02
     Exponent=  1.9622572000D+00 Coefficients=  1.3796524000D-01
     Exponent=  4.4453796000D-01 Coefficients=  4.7831935000D-01
 S 1 1.00
     Exponent=  1.2194962000D-01 Coefficients=  1.0000000000D+00
 P 1 1.00
     Exponent=  8.0000000000D-01 Coefficients=  1.0000000000D+00
 ****
 Centers:       1      2      3      8      9     28     29     30     40     41
 Centers:      42     43     44     45     46     54     57     58     59     60
 Centers:      62     64
 S 5 1.00
     Exponent=  1.2384016938D+03 Coefficients=  5.4568832082D-03
     Exponent=  1.8629004992D+02 Coefficients=  4.0638409211D-02
     Exponent=  4.2251176346D+01 Coefficients=  1.8025593888D-01
     Exponent=  1.1676557932D+01 Coefficients=  4.6315121755D-01
     Exponent=  3.5930506482D+00 Coefficients=  4.4087173314D-01
 S 1 1.00
     Exponent=  4.0245147363D-01 Coefficients=  1.0000000000D+00
 S 1 1.00
     Exponent=  1.3090182668D-01 Coefficients=  1.0000000000D+00
 P 3 1.00
     Exponent=  9.4680970621D+00 Coefficients=  3.8387871728D-02
     Exponent=  2.0103545142D+00 Coefficients=  2.1117025112D-01
     Exponent=  5.4771004707D-01 Coefficients=  5.1328172114D-01
 P 1 1.00
     Exponent=  1.5268613795D-01 Coefficients=  1.0000000000D+00
 D 1 1.00
     Exponent=  8.0000000000D-01 Coefficients=  1.0000000000D+00
 ****
 Centers:      50     51     52     53
 S 5 1.00
     Exponent=  1.7128415853D+03 Coefficients= -5.3934125305D-03
     Exponent=  2.5764812677D+02 Coefficients= -4.0221581118D-02
     Exponent=  5.8458245853D+01 Coefficients= -1.7931144990D-01
     Exponent=  1.6198367905D+01 Coefficients= -4.6376317823D-01
     Exponent=  5.0052600809D+00 Coefficients= -4.4171422662D-01
 S 1 1.00
     Exponent=  5.8731856571D-01 Coefficients=  1.0000000000D+00
 S 1 1.00
     Exponent=  1.8764592253D-01 Coefficients=  1.0000000000D+00
 P 3 1.00
     Exponent=  1.3571470233D+01 Coefficients= -4.0072398852D-02
     Exponent=  2.9257372874D+00 Coefficients= -2.1807045028D-01
     Exponent=  7.9927750754D-01 Coefficients= -5.1294466049D-01
 P 1 1.00
     Exponent=  2.1954348034D-01 Coefficients=  1.0000000000D+00
 D 1 1.00
     Exponent=  1.0000000000D+00 Coefficients=  1.0000000000D+00
 ****
 Centers:       4      5      6      7     16     17     18     22     23     24
 Centers:      25     26     27     69
 S 5 1.00
     Exponent=  2.2661767785D+03 Coefficients= -5.3431809926D-03
     Exponent=  3.4087010191D+02 Coefficients= -3.9890039230D-02
     Exponent=  7.7363135167D+01 Coefficients= -1.7853911985D-01
     Exponent=  2.1479644940D+01 Coefficients= -4.6427684959D-01
     Exponent=  6.6589433124D+00 Coefficients= -4.4309745172D-01
 S 1 1.00
     Exponent=  8.0975975668D-01 Coefficients=  1.0000000000D+00
 S 1 1.00
     Exponent=  2.5530772234D-01 Coefficients=  1.0000000000D+00
 P 3 1.00
     Exponent=  1.7721504317D+01 Coefficients=  4.3394573193D-02
     Exponent=  3.8635505440D+00 Coefficients=  2.3094120765D-01
     Exponent=  1.0480920883D+00 Coefficients=  5.1375311064D-01
 P 1 1.00
     Exponent=  2.7641544411D-01 Coefficients=  1.0000000000D+00
 D 1 1.00
     Exponent=  1.2000000000D+00 Coefficients=  1.0000000000D+00
 ****
 Centers:      31     32     33     34     35     36     37     38     39
 S 5 1.00
     Exponent=  2.8948325990D+03 Coefficients= -5.3408255515D-03
     Exponent=  4.3541939120D+02 Coefficients= -3.9904258866D-02
     Exponent=  9.8843328866D+01 Coefficients= -1.7912768038D-01
     Exponent=  2.7485198001D+01 Coefficients= -4.6758090825D-01
     Exponent=  8.5405498171D+00 Coefficients= -4.4653131020D-01
 S 1 1.00
     Exponent=  1.0654578038D+00 Coefficients=  1.0000000000D+00
 S 1 1.00
     Exponent=  3.3247346748D-01 Coefficients=  1.0000000000D+00
 P 3 1.00
     Exponent=  2.2696633924D+01 Coefficients= -4.5212874436D-02
     Exponent=  4.9872339257D+00 Coefficients= -2.3754317067D-01
     Exponent=  1.3491613954D+00 Coefficients= -5.1287353587D-01
 P 1 1.00
     Exponent=  3.4829881977D-01 Coefficients=  1.0000000000D+00
 D 1 1.00
     Exponent=  1.4000000000D+00 Coefficients=  1.0000000000D+00
 ****
 Centers:      19     20     21
 S 5 1.00
     Exponent=  9.1849303010D+03 Coefficients= -2.2294387756D-03
     Exponent=  1.3815105503D+03 Coefficients= -1.6683029937D-02
     Exponent=  3.1387147580D+02 Coefficients= -7.5262436116D-02
     Exponent=  8.8053870623D+01 Coefficients= -1.9376827038D-01
     Exponent=  2.7039914905D+01 Coefficients= -1.7718020803D-01
 S 3 1.00
     Exponent=  4.5648731303D+01 Coefficients= -1.0736062573D-01
     Exponent=  4.9664522326D+00 Coefficients=  6.5066293018D-01
     Exponent=  2.0116242047D+00 Coefficients=  5.9712155354D-01
 S 1 1.00
     Exponent=  3.5661077013D-01 Coefficients=  1.0000000000D+00
 S 1 1.00
     Exponent=  1.3507221477D-01 Coefficients=  1.0000000000D+00
 P 5 1.00
     Exponent=  2.6198233439D+02 Coefficients= -9.2729929822D-03
     Exponent=  6.1306894736D+01 Coefficients= -6.6547669241D-02
     Exponent=  1.9103729887D+01 Coefficients= -2.4828595903D-01
     Exponent=  6.6567720378D+00 Coefficients= -4.8703847402D-01
     Exponent=  2.3959635161D+00 Coefficients= -3.9337850312D-01
 P 1 1.00
     Exponent=  6.1776161679D-01 Coefficients=  1.0000000000D+00
 P 1 1.00
     Exponent=  1.6993376871D-01 Coefficients=  1.0000000000D+00
 D 1 1.00
     Exponent=  5.5000000000D-01 Coefficients=  1.0000000000D+00
 ****
 Centers:      68
 S 5 1.00
     Exponent=  9.5169767000D+04 Coefficients=  2.2000000000D-05
     Exponent=  1.5488403000D+04 Coefficients=  1.4500000000D-04
     Exponent=  3.7762335000D+03 Coefficients=  6.5100000000D-04
     Exponent=  1.0790501000D+03 Coefficients=  2.0380000000D-03
     Exponent=  2.6895380000D+02 Coefficients=  5.1270000000D-03
 S 1 1.00
     Exponent=  6.3467900000D+01 Coefficients=  1.0000000000D+00
 S 1 1.00
     Exponent=  4.5133200000D+01 Coefficients=  1.0000000000D+00
 S 1 1.00
     Exponent=  2.1456800000D+01 Coefficients=  1.0000000000D+00
 S 1 1.00
     Exponent=  5.3483000000D+00 Coefficients=  1.0000000000D+00
 S 1 1.00
     Exponent=  2.6778000000D+00 Coefficients=  1.0000000000D+00
 S 1 1.00
     Exponent=  1.0287000000D+00 Coefficients=  1.0000000000D+00
 S 1 1.00
     Exponent=  4.4080000000D-01 Coefficients=  1.0000000000D+00
 S 1 1.00
     Exponent=  7.9100000000D-02 Coefficients=  1.0000000000D+00
 S 1 1.00
     Exponent=  3.1300000000D-02 Coefficients=  1.0000000000D+00
 P 3 1.00
     Exponent=  1.2333733920D+01 Coefficients= -1.5313031066D-01
     Exponent=  1.1080331415D+01 Coefficients= -2.0300664852D-01
     Exponent=  2.0341747228D+00 Coefficients= -1.9458361263D-01
 P 6 1.00
     Exponent=  1.5005317313D+03 Coefficients= -1.0192569555D-03
     Exponent=  3.8239748937D+02 Coefficients= -5.9476212135D-03
     Exponent=  1.3299969628D+02 Coefficients= -1.6265160929D-02
     Exponent=  4.6110032419D+01 Coefficients= -3.5623845839D-02
     Exponent=  1.5583529011D+01 Coefficients=  2.3709171074D-01
     Exponent=  5.7856677022D+00 Coefficients= -3.0670977844D-01
 P 1 1.00
     Exponent=  3.7823361008D+00 Coefficients=  1.0000000000D+00
 P 1 1.00
     Exponent=  1.3682592248D+00 Coefficients=  1.0000000000D+00
 P 1 1.00
     Exponent=  5.7288205601D-01 Coefficients=  1.0000000000D+00
 P 1 1.00
     Exponent=  2.2793165135D-01 Coefficients=  1.0000000000D+00
 P 1 1.00
     Exponent=  8.1403917986D-02 Coefficients=  1.0000000000D+00
 P 1 1.00
     Exponent=  2.9091071778D-02 Coefficients=  1.0000000000D+00
 D 6 1.00
     Exponent=  4.8452750000D+02 Coefficients=  2.2860000000D-03
     Exponent=  1.4666550000D+02 Coefficients=  1.8629000000D-02
     Exponent=  5.6377900000D+01 Coefficients=  7.4088000000D-02
     Exponent=  2.3671100000D+01 Coefficients=  1.6155400000D-01
     Exponent=  9.4401000000D+00 Coefficients=  3.0809100000D-01
     Exponent=  4.3712000000D+00 Coefficients=  4.4833400000D-01
 D 1 1.00
     Exponent=  1.9580000000D+00 Coefficients=  1.0000000000D+00
 D 1 1.00
     Exponent=  7.2720000000D-01 Coefficients=  1.0000000000D+00
 D 1 1.00
     Exponent=  2.4600000000D-01 Coefficients=  1.0000000000D+00
 D 1 1.00
     Exponent=  7.4400000000D-02 Coefficients=  1.0000000000D+00
 F 5 1.00
     Exponent=  1.7515590000D+02 Coefficients=  4.1020000000D-03
     Exponent=  6.2890900000D+01 Coefficients=  3.9086000000D-02
     Exponent=  2.8362400000D+01 Coefficients=  1.4704400000D-01
     Exponent=  1.3247800000D+01 Coefficients=  2.7109200000D-01
     Exponent=  6.1440000000D+00 Coefficients=  3.4566500000D-01
 F 1 1.00
     Exponent=  2.7623000000D+00 Coefficients=  1.0000000000D+00
 F 1 1.00
     Exponent=  1.1574000000D+00 Coefficients=  1.0000000000D+00
 F 1 1.00
     Exponent=  4.2440000000D-01 Coefficients=  1.0000000000D+00
 G 1 1.00
     Exponent=  7.0090000000D-01 Coefficients=  1.0000000000D+00
 ****
 ======================================================================================================
                                       Pseudopotential Parameters
 ======================================================================================================
  Center     Atomic      Valence      Angular      Power
  Number     Number     Electrons     Momentum     of R      Exponent        Coefficient   SO-Coeffient
 ======================================================================================================
    1          6
                                   No pseudopotential on this center.
    2          6
                                   No pseudopotential on this center.
    3          6
                                   No pseudopotential on this center.
    4          8
                                   No pseudopotential on this center.
    5          8
                                   No pseudopotential on this center.
    6          8
                                   No pseudopotential on this center.
    7          8
                                   No pseudopotential on this center.
    8          6
                                   No pseudopotential on this center.
    9          6
                                   No pseudopotential on this center.
   10          1
                                   No pseudopotential on this center.
   11          1
                                   No pseudopotential on this center.
   12          1
                                   No pseudopotential on this center.
   13          1
                                   No pseudopotential on this center.
   14          1
                                   No pseudopotential on this center.
   15          1
                                   No pseudopotential on this center.
   16          8
                                   No pseudopotential on this center.
   17          8
                                   No pseudopotential on this center.
   18          8
                                   No pseudopotential on this center.
   19         16
                                   No pseudopotential on this center.
   20         16
                                   No pseudopotential on this center.
   21         16
                                   No pseudopotential on this center.
   22          8
                                   No pseudopotential on this center.
   23          8
                                   No pseudopotential on this center.
   24          8
                                   No pseudopotential on this center.
   25          8
                                   No pseudopotential on this center.
   26          8
                                   No pseudopotential on this center.
   27          8
                                   No pseudopotential on this center.
   28          6
                                   No pseudopotential on this center.
   29          6
                                   No pseudopotential on this center.
   30          6
                                   No pseudopotential on this center.
   31          9
                                   No pseudopotential on this center.
   32          9
                                   No pseudopotential on this center.
   33          9
                                   No pseudopotential on this center.
   34          9
                                   No pseudopotential on this center.
   35          9
                                   No pseudopotential on this center.
   36          9
                                   No pseudopotential on this center.
   37          9
                                   No pseudopotential on this center.
   38          9
                                   No pseudopotential on this center.
   39          9
                                   No pseudopotential on this center.
   40          6
                                   No pseudopotential on this center.
   41          6
                                   No pseudopotential on this center.
   42          6
                                   No pseudopotential on this center.
   43          6
                                   No pseudopotential on this center.
   44          6
                                   No pseudopotential on this center.
   45          6
                                   No pseudopotential on this center.
   46          6
                                   No pseudopotential on this center.
   47          1
                                   No pseudopotential on this center.
   48          1
                                   No pseudopotential on this center.
   49          1
                                   No pseudopotential on this center.
   50          7
                                   No pseudopotential on this center.
   51          7
                                   No pseudopotential on this center.
   52          7
                                   No pseudopotential on this center.
   53          7
                                   No pseudopotential on this center.
   54          6
                                   No pseudopotential on this center.
   55          1
                                   No pseudopotential on this center.
   56          1
                                   No pseudopotential on this center.
   57          6
                                   No pseudopotential on this center.
   58          6
                                   No pseudopotential on this center.
   59          6
                                   No pseudopotential on this center.
   60          6
                                   No pseudopotential on this center.
   61          1
                                   No pseudopotential on this center.
   62          6
                                   No pseudopotential on this center.
   63          1
                                   No pseudopotential on this center.
   64          6
                                   No pseudopotential on this center.
   65          1
                                   No pseudopotential on this center.
   66          1
                                   No pseudopotential on this center.
   67          1
                                   No pseudopotential on this center.
   68         71           43
                                      H and up 
                                                     2        1.0000000        0.00000000    0.00000000
                                      S - H
                                                     2       35.1620970      989.99558400    0.00000000
                                      P - H
                                                     2       19.4644020      278.86565200    0.00000000
                                      D - H
                                                     2       10.0068650       71.00917800    0.00000000
                                      F - H
                                                     2       23.5179320      -47.40589000    0.00000000
                                      G - H
                                                     2       29.4122380      -35.55714600    0.00000000
   69          8
                                   No pseudopotential on this center.
 ======================================================================================================
 Ernie: Thresh=  0.10000D-02 Tol=  0.10000D-05 Strict=F.
 There are   991 symmetry adapted cartesian basis functions of A   symmetry.
 There are   916 symmetry adapted basis functions of A   symmetry.
   916 basis functions,  1662 primitive gaussians,   991 cartesian basis functions
   230 alpha electrons      230 beta electrons
       nuclear repulsion energy     12004.6307438550 Hartrees.
 IExCor= 7252 DFT=T Ex+Corr=MN15 ExCW=0 ScaHFX=  0.440000
 ScaDFX=  1.000000  1.000000  1.000000  1.000000 ScalE2=  1.000000  1.000000
 IRadAn=      5 IRanWt=     -1 IRanGd=            0 ICorTp=0 IEmpDi=  4
 NAtoms=   69 NActive=   69 NUniq=   69 SFac= 1.00D+00 NAtFMM=   60 NAOKFM=T Big=T
 Integral buffers will be    131072 words long.
 Raffenetti 2 integral format.
 Two-electron integral symmetry is turned on.
 ------------------------------------------------------------------------------
 Polarizable Continuum Model (PCM)
 =================================
 Model                : PCM.
 Atomic radii         : SMD-Coulomb.
 Polarization charges : Total charges.
 Charge compensation  : None.
 Solution method      : On-the-fly selection.
 Cavity type          : VdW (van der Waals Surface) (Alpha=1.000).
 Cavity algorithm     : GePol (No added spheres)
                        Default sphere list used, NSphG=   69.
                        Lebedev-Laikov grids with approx.  5.0 points / Ang**2.
                        Smoothing algorithm: York/Karplus (Gamma=1.0000).
                        Polarization charges: spherical gaussians, with
                                              point-specific exponents (IZeta= 3).
                        Self-potential: point-specific (ISelfS= 7).
                        Self-field    : sphere-specific E.n sum rule (ISelfD= 2).
 1st derivatives      : Analytical E(r).r(x)/FMM algorithm (CHGder, D1EAlg=3).
[...]
 33038,-0.00124647,0.00335741,0.00022437,-0.00156892,0.00011942,-0.0001
 8513,0.00003167,-0.00037785,-0.00808853,-0.01139913,-0.00010905,-0.000
 49422,-0.00043485,0.03142808,-0.24503169,-0.14501862,-0.00133914,-0.00
 093565,0.00172891,-0.00174807,-0.00054551,0.00178194,-0.03641155,0.250
 69376,-0.00000875,0.00002650,-0.00001398,-0.00000346,0.00006569,-0.000
 01756,0.00002487,0.00005128,0.00002041,-0.00001559,-0.00001939,-0.0000
 0895,-0.00005802,-0.00005248,0.00001639,0.00000391,-0.00002751,-0.0000
 1082,-0.00001458,-0.00003757,-0.00001049,-0.00003656,0.00002106,-0.000
 00575,0.00001084,0.00000929,0.00000505,0.00000186,0.00000889,-0.000003
 79,0.00000630,-0.00001182,0.00000396,0.00003103,-0.00005700,0.00001554
 ,-0.00000075,-0.00000125,-0.00000044,-0.00000228,-0.00000081,-0.000000
 15,-0.00000104,-0.00000040,-0.00000115,-0.00001525,-0.00000560,-0.0000
 0983,-0.00001182,-0.00000752,0.00000721,-0.00005644,0.00004269,0.00001
 031,0.00007846,-0.00005975,-0.00002695,0.00001866,0.00000874,0.0000146
 5,0.00002495,0.00001648,-0.00001335,-0.00002151,0.00001672,0.00001048,
 -0.00001583,0.00002572,-0.00000314,-0.00001574,-0.00000500,-0.00000912
 ,-0.00000408,-0.00000341,-0.00000464,-0.00001418,-0.00001366,0.0000107
 8,-0.00001298,-0.00000887,0.00000143,0.00001429,0.00001313,-0.00000459
 ,0.00001136,-0.00000474,0.00000186,-0.00001632,-0.00010275,0.00004376,
 -0.00000189,-0.00000673,0.00000113,-0.00000788,-0.00000340,-0.00000137
 ,-0.00000495,-0.00000215,0.00000487,-0.00000300,0.00000170,0.00000041,
 -0.00000450,-0.00000095,0.00000020,-0.00000394,0.00000278,-0.00000340,
 -0.00002620,0.00002337,-0.00001938,-0.00000247,0.00001587,0.00000058,0
 .00001394,0.00005396,-0.00002179,0.00032684,0.00044711,-0.00038493,-0.
 00004846,-0.00000083,-0.00002390,-0.00001075,-0.00001271,-0.00001566,0
 .00002170,-0.00000578,0.00001141,0.00000687,0.00000325,-0.00000496,-0.
 00000286,-0.00000780,0.00001240,0.00000579,-0.00000125,0.00000191,-0.0
 0000123,0.00000076,0.00000105,-0.00000173,0.00000176,0.00000174,-0.000
 00021,0.00000048,0.00000217,-0.00002026,0.00001426,0.00001480,-0.00000
 173,-0.00000668,-0.00001387,0.00003503,-0.00005707,0.00002111,-0.00002
 302,0.00000405,-0.00003376,-0.00000632,0.00000436,0.00000607,0.0000016
 0,-0.00000036,-0.00000051,-0.00005669,-0.00003019,-0.00006811,-0.00008
 914,0.00067954,-0.00037670,-0.00522537,-0.00267240,0.00100372,-0.00306
 030,-0.00145634,0.00368423,0.00394226,-0.01708571,-0.00609247,0.000264
 74,-0.00063826,-0.00047757,-0.00293406,0.00438594,0.00664694,-0.000051
 50,0.00025233,0.00005547,0.01474766,-0.14503569,-0.15050245,0.00198981
 ,0.00203212,-0.00103478,0.00194946,0.00153192,-0.00156996,-0.01180536,
 0.15774747,0.14906294,-0.00127663,-0.00193908,0.00241625,-0.04581307,0
 .01247644,-0.01038798,-0.01986071,0.02789938,-0.00017738,-0.00989766,0
 .00454089,0.01526238,-0.02235152,-0.01144829,-0.01046164,0.01700092,0.
 00079672,0.01415151,0.00034306,-0.01607084,-0.00111591,-0.00037688,-0.
 00354469,-0.00557291,0.00406670,0.00358017,0.00172165,0.00029462,0.000
 16125,0.00034343,-0.00013258,0.00073562,0.00018336,-0.00021777,-0.0000
 0149,0.00054199,-0.00029936,-0.00032762,-0.00007352,-0.00041391,-0.000
 30046,-0.00014606,0.00000741,-0.00073176,-0.00006224,-0.01780453,-0.01
 280682,0.00427370,-0.01389260,0.00455821,0.00763697,-0.02233362,-0.005
 07470,0.00617031,0.03358654,0.02871205,-0.01885814,-0.02555958,-0.0208
 7019,-0.04744401,0.01717098,-0.00701424,-0.01430356,-0.02871353,0.0006
 6318,0.01057072,-0.00458100,-0.00429416,0.00359550,-0.00943373,0.00182
 390,-0.00079781,0.00252560,0.00709857,0.01039136,-0.01344474,0.0022877
 4,0.00728798,-0.00376086,0.00128006,0.00096658,0.00352656,0.00147782,0
 .00311682,-0.01277693,0.00068558,-0.00223269,0.00256173,-0.00120412,0.
 00681030,-0.00058191,0.00051906,-0.00026814,-0.00248495,0.00009622,-0.
 00203670,-0.00128281,-0.00058191,0.00066141,0.00294617,0.00016309,0.00
 108235,0.00472979,0.00188974,-0.00025605,0.00442113,-0.00223536,0.0034
 9086,-0.00271617,0.00206921,-0.00221884,-0.00081357,0.00010247,-0.0002
 0123,-0.00218655,-0.00264684,-0.00165549,-0.00392373,-0.00192101,0.000
 39984,-0.00017339,0.00022473,0.00114715,-0.00010829,-0.00033213,0.0000
 1106,-0.00022016,0.00019585,0.00013523,0.00042694,0.00031596,-0.000285
 92,-0.00031421,-0.00006798,0.00003890,-0.00013953,-0.00040317,0.000001
 52,-0.00009943,0.00030081,-0.00009967,0.00005557,0.00003637,0.00005730
 ,0.00003390,0.00000738,0.00013155,0.00028232,0.00019907,-0.00005405,0.
 00010847,-0.00016045,-0.00024489,0.00235930,-0.00002238,0.00053104,-0.
 00006444,0.00013672,-0.00104811,-0.00252796,0.00113036,-0.00175834,0.0
 0064523,-0.00048456,0.00017840,0.00043582,0.00023797,-0.00005346,0.000
 62576,0.00081487,-0.00006756,0.00037715,0.00031135,-0.00024396,-0.0004
 1112,0.00016961,-0.00027413,0.00046071,-0.00017301,-0.00050017,0.00010
 576,-0.00043801,0.00063542,-0.00010462,0.00015791,0.00010188,-0.000133
 46,-0.00009897,-0.00000705,0.00002453,-0.00005568,0.00011398,0.0000165
 0,0.00006451,0.00001031,0.00004058,0.00005281,0.00007775,0.00000680,0.
 00006005,0.00009526,0.16700444,0.00156957,0.00215144,-0.00081597,-0.00
 269586,0.00408087,0.00216916,0.02339590,-0.01834165,0.00028927,-0.0000
 1220,-0.00794473,-0.01263487,-0.00135247,-0.01086364,-0.00109116,0.003
 30273,-0.00027176,-0.00011330,-0.00243730,0.01048618,0.00135402,-0.000
 07201,0.00023445,-0.00053520,-0.00097757,-0.00207608,-0.00191617,-0.00
 000481,-0.00009360,0.00002748,0.00024548,0.00046958,0.00011352,-0.0001
 9474,-0.00016228,0.00007887,-0.00046900,0.00029825,0.00032942,0.000475
 71,0.00002313,-0.00010269,-0.00015427,-0.00162101,0.00042631,-0.011079
 76,-0.02958838,0.00923520,0.00409060,-0.01472500,-0.00067288,-0.009371
 57,-0.01584528,0.00813015,0.02883731,-0.07327339,0.00346599,-0.0140576
 0,0.01838710,-0.03973968,-0.00289624,0.00782300,0.05065520,0.01009724,
 -0.01559014,-0.00393675,-0.00702832,0.01334852,-0.00401699,-0.00167620
 ,-0.01874374,0.00600762,0.00114055,-0.00194369,0.00637893,0.00240098,-
 0.00912812,-0.01744566,-0.00289760,-0.00239798,-0.00945874,-0.00371979
 ,-0.00725760,0.00382761,-0.00649194,0.00276736,0.00425813,-0.00503798,
 -0.01227420,-0.01264021,0.00031658,0.00192944,-0.00072100,0.00108847,0
 .00133023,-0.00128559,0.00280757,0.00117116,-0.00425829,0.00117756,-0.
 00246439,-0.00196142,0.00104389,-0.00031715,-0.00030899,0.00347737,-0.
 00206508,0.00180577,0.00149564,0.00367398,0.00355506,-0.00202214,0.004
 09265,0.00666881,0.00402287,0.00656849,0.00200507,0.00099167,0.0010874
 3,0.00023884,0.00000347,0.00009478,-0.00046366,-0.00004164,0.00014112,
 0.00002847,0.00011586,-0.00006701,0.00002160,0.00001884,0.00023466,0.0
 0007762,0.00009669,0.00007042,-0.00001146,-0.00002327,0.00008846,0.000
 01968,0.00014096,-0.00039555,0.00012141,-0.00002941,-0.00002904,-0.000
 02450,0.00001838,-0.00000614,-0.00002298,-0.00005639,-0.00010838,-0.00
 001073,-0.00006798,-0.00000402,0.00003041,-0.00098968,-0.00008848,-0.0
 0012441,-0.00033582,-0.00026932,0.00018723,0.00061870,-0.00129358,-0.0
 0019680,0.00032530,-0.00009493,-0.00012584,-0.00019441,-0.00016404,-0.
 00002080,-0.00035742,0.00026030,0.00012859,0.00005178,-0.00017842,-0.0
 0056131,0.00026583,-0.00007483,0.00023194,-0.00004311,0.00046417,-0.00
 014990,-0.00046627,0.00014283,0.00071545,0.00021670,-0.00024086,-0.000
 00457,0.00004024,0.00002888,0.00004672,-0.00013303,-0.00015158,-0.0003
 4961,-0.00022967,-0.00058837,0.00007808,0.00003816,-0.00002292,0.00001
 693,-0.00002565,0.00001120,0.00001391,-0.01438378,0.17120388,0.0000003
 1,0.00151951,0.00093413,-0.01662302,0.00569649,0.00127628,0.02116797,-
 0.02077873,0.00754999,0.00369065,-0.00640277,-0.02655174,-0.00293056,-
 0.00415074,-0.01234219,0.00562377,-0.00107284,0.00344089,-0.00366390,0
 .01355046,-0.00017579,-0.00037895,-0.00083372,-0.00114707,-0.00204563,
 -0.00200988,-0.00084019,0.00026216,0.00006220,-0.00008552,-0.00057943,
 -0.00020102,-0.00046932,-0.00014889,-0.00009766,0.00013318,-0.00020800
 ,0.00024670,0.00005727,0.00084919,-0.00009513,-0.00041201,0.00056131,-
 0.00064841,0.00107895,-0.00184995,0.00288842,-0.01503925,0.01060977,-0
 .01170496,-0.03274596,0.00826285,0.00433990,-0.01665994,-0.01820495,-0
 .00050725,0.02180086,-0.03930494,-0.04208810,-0.00763357,-0.02351827,0
 .04936560,-0.03624019,0.00787276,0.00139386,-0.01548824,0.00220973,0.0
 0141818,-0.00346638,0.00515954,0.01312612,-0.02158313,0.00425670,0.008
 45127,0.00277633,0.00420797,-0.00885143,-0.00905234,0.00788855,-0.0061
 2259,0.00806153,0.01142396,0.00783378,-0.00505164,-0.01028515,0.005918
 93,0.00009169,0.00503570,-0.00503071,0.00265969,-0.00163644,-0.0069671
 7,0.00169026,-0.00348613,-0.00201897,-0.00012499,-0.00302087,-0.001195
 93,0.00351890,0.00247229,-0.00201149,-0.00166607,0.00601025,0.00158615
 ,-0.00079687,0.00249247,-0.00138324,0.00127736,-0.00191514,0.00392234,
 -0.00195789,-0.00042172,-0.00017477,-0.00171775,0.00015396,0.00153718,
 -0.00050128,0.00059774,0.00069381,0.00005449,-0.00014454,-0.00013801,0
 .00012579,-0.00001805,0.00009951,0.00003973,0.00006998,-0.00001598,-0.
 00002807,0.00005732,-0.00003281,0.00006686,-0.00015393,0.00007978,-0.0
 0022494,-0.00000492,-0.00000573,-0.00021887,-0.00001521,0.00011558,0.0
 0026337,-0.00000407,0.00000983,-0.00000743,-0.00004760,0.00002589,-0.0
 0003226,-0.00004178,-0.00004749,-0.00003856,-0.00007302,-0.00000885,-0
 .00003785,-0.00111213,-0.00001739,-0.00061040,0.00017385,-0.00002268,0
 .00046828,0.00005116,-0.00132493,-0.00057217,0.00047948,-0.00027227,-0
 .00007661,-0.00003423,-0.00006739,0.00000170,-0.00009992,0.00010729,0.
 00004468,0.00035692,0.00022119,0.00037513,-0.00010376,-0.00007170,-0.0
 0016875,-0.00000649,-0.00003721,-0.00033998,0.00014524,0.00011954,-0.0
 0019970,-0.00008392,0.00008066,-0.00006416,-0.00004857,-0.00002014,0.0
 0002585,0.00007699,-0.00007278,-0.00002613,0.00000533,0.00004360,0.000
 10154,-0.00001996,-0.00001471,0.00000076,-0.00002959,-0.00003504,0.000
 00983,0.02135088,0.00282852,0.15755615,-0.08412280,-0.03045931,0.02460
 486,-0.00149789,-0.01024784,0.00695401,-0.01351861,-0.02278229,0.03201
 317,-0.00257201,-0.00322400,-0.00042398,0.00010231,0.00314862,0.000142
 73,0.00169504,0.00331012,0.00535293,-0.00336228,-0.00651476,-0.0041952
 8,0.00028643,-0.00055633,-0.00098921,0.00186107,0.00096811,-0.00142043
 ,0.00000666,0.00018570,0.00025310,0.00002203,0.00017201,0.00009324,-0.
 00005051,0.00002140,0.00033499,-0.00018784,-0.00022872,-0.00018864,-0.
 00060240,-0.00055583,-0.00002490,0.00008903,0.00011054,-0.00005653,-0.
 00086689,-0.00020021,-0.00041174,-0.00040839,-0.00006617,0.00081176,-0
 .00048076,0.00102667,-0.00000365,0.00070061,-0.00126445,-0.00007361,0.
 00121096,0.00039628,0.00077126,0.00072668,0.00008875,-0.00242418,-0.00
 037879,0.00086927,0.00007779,-0.00024312,0.00041957,-0.00011242,-0.000
 92658,-0.00009143,-0.00041248,-0.00025458,-0.00016200,-0.00024884,-0.0
 0092406,-0.00047432,0.00179531,-0.00003105,-0.00012266,0.00067351,0.00
 059469,0.00064785,-0.00029779,0.00059565,-0.00018708,0.00000842,-0.000
 11388,-0.00058806,-0.00024799,-0.00006576,-0.00030870,0.00007936,-0.00
 024136,-0.00013674,0.00001935,-0.00028204,-0.00009715,0.00038002,-0.00
 015473,0.00008508,0.00005015,-0.00025476,-0.00007979,0.00003270,-0.000
 19545,0.00011845,-0.00014348,-0.00004927,0.00024275,0.00004404,-0.0000
 8635,0.00015455,0.00020002,0.00017188,0.00028243,0.00001601,-0.1690329
 1,-0.06017962,-0.01883609,-0.05383800,-0.01891794,0.00193546,-0.003487
 07,0.00875447,-0.00080074,0.00173821,-0.00295405,-0.00268401,-0.003631
 16,0.00201388,0.00044791,0.00000617,0.00027582,0.00017515,0.00016551,0
 .00040719,-0.00063310,0.00006202,0.00020820,-0.00030281,-0.00008270,0.
 00012516,0.00003800,0.00006360,-0.00019551,-0.00025221,-0.00119810,-0.
 00238562,0.00002021,-0.00061007,0.00041344,0.00092504,0.00799029,-0.00
 223388,0.00269073,0.00114688,-0.00028824,-0.00109347,0.00468538,0.0147
 0088,-0.01918436,0.00096255,-0.00132895,0.00024929,-0.01419308,-0.0096
 9631,0.00178266,-0.01105886,-0.01402601,-0.00591585,-0.00163284,0.0039
 7876,-0.00116217,0.00120292,-0.00268987,0.00067639,0.00061406,-0.00051
 841,-0.00074558,0.00080276,0.00001607,0.00135240,0.00028067,0.00021367
 ,-0.00095259,-0.00009049,-0.00008730,0.00053655,0.00018199,-0.00027177
 ,0.00013865,0.00001452,-0.00022270,-0.00003069,0.00004336,-0.00019706,
 -0.00027515,0.00001388,-0.00012202,0.00009151,0.00503648,-0.00190170,-
 0.00131316,0.33765317,-0.01545647,-0.11241415,0.07568551,0.00286574,0.
 00764089,-0.00125806,-0.01563520,-0.02174437,0.02652876,-0.00167746,0.
 00078146,-0.00252430,-0.00214069,0.00168948,0.00198531,-0.00010559,0.0
 0121126,0.00238399,-0.00338109,-0.00256433,-0.00298504,-0.00017911,-0.
 00104300,0.00020619,0.00144204,0.00084837,-0.00147566,-0.00002038,0.00
 002369,0.00013745,0.00003760,0.00023846,0.00018421,-0.00015929,-0.0000
 3033,0.00006209,-0.00015034,-0.00016750,-0.00014526,-0.00047975,-0.000
 47341,-0.00006213,0.00008519,0.00011488,0.00002747,-0.00035563,0.00005
 600,-0.00015826,-0.00022452,0.00016803,0.00028387,0.00026762,0.0003148
 6,-0.00005820,-0.00044344,-0.00038232,0.00025220,0.00051561,-0.0001239
 7,0.00031912,0.00036570,-0.00035533,-0.00108804,0.00004440,0.00053852,
 -0.00011303,0.00007085,0.00007526,-0.00005207,-0.00030123,0.00016746,-
 0.00013848,-0.00012376,0.00002819,-0.00007760,-0.00044106,0.00010576,0
 .00088254,-0.00001135,0.00005912,0.00029211,0.00028753,0.00018296,-0.0
 0012717,0.00022461,-0.00012351,0.00000439,-0.00027623,-0.00015850,0.00
 005974,-0.00004671,-0.00006358,0.00003096,-0.00010909,-0.00003800,0.00
 000429,-0.00013490,-0.00002522,0.00018442,-0.00006180,0.00006014,0.000
 03579,-0.00008087,-0.00000435,0.00000658,-0.00008294,0.00006257,-0.000
 06759,0.00007227,0.00006122,-0.00001193,0.00007696,0.00000643,-0.00004
 594,0.00015991,0.00013628,-0.00004719,-0.06553860,-0.09580625,0.001693
 22,0.00457864,0.00933359,0.00098777,0.00354041,-0.00166501,0.00040732,
 -0.00145400,0.00035018,-0.00114381,0.00836729,-0.00048070,-0.00249956,
 -0.00072163,-0.00066612,-0.00083368,-0.00084246,-0.00223674,0.00233816
 ,-0.00034600,0.00020891,0.00005504,0.00020348,0.00006908,-0.00001764,0
 .00009806,0.00063198,0.00076016,-0.00007025,0.00068305,0.00003246,0.00
 130889,0.00020406,0.00046390,-0.00329663,0.00103449,-0.00287474,0.0010
 0967,0.00160617,0.00032652,-0.00799282,-0.02440667,0.03338063,-0.00207
 807,0.00271138,-0.00084626,-0.02368362,-0.01097634,0.00149284,-0.03232
 694,-0.02040058,-0.00918532,-0.00061287,0.00016602,-0.00076684,0.00255
 571,-0.00448699,0.00228016,-0.00091283,0.00077876,-0.00002488,-0.00075
 266,-0.00037663,-0.00102983,0.00082580,-0.00066852,-0.00242553,-0.0003
 9211,-0.00025930,0.00043457,-0.00083899,-0.00049201,-0.00109467,0.0000
 4627,-0.00024093,0.00013479,0.00012400,-0.00024771,-0.00056693,-0.0000
 4393,-0.00015595,-0.00007931,0.00159999,-0.00189755,-0.00072967,0.1532
 0910,0.27282693,0.00111133,0.07281127,-0.15844786,0.01408125,0.0310072
 6,-0.03719560,0.00631590,0.00732248,-0.00131513,-0.00010526,-0.0003492
 4,0.00258174,0.00091982,-0.00736396,0.00156678,-0.00160133,-0.00559340
 ,-0.00419416,0.00108214,0.00060606,0.00063702,-0.00112977,-0.00159198,
 0.00174023,-0.00025842,-0.00011889,-0.00034128,0.00001093,-0.00035589,
 -0.00029944,-0.00001909,0.00016000,0.00030408,-0.00016354,-0.00024685,
 -0.00079474,0.00009908,0.00006166,0.00004131,0.00008133,0.00001494,0.0
 0001018,0.00005239,0.00004803,0.00009040,0.00037571,0.00014185,0.00036
 036,0.00030222,0.00007154,-0.00025597,0.00037709,-0.00048092,0.0002077
 5,-0.00045744,0.00057906,-0.00012346,-0.00029506,-0.00010989,-0.000589
 50,-0.00092173,-0.00025866,0.00093952,0.00017965,-0.00031686,0.0000228
 5,0.00016251,-0.00022158,0.00012754,0.00025204,0.00001890,0.00036336,0
 .00003202,0.00008617,0.00018789,0.00062194,0.00050833,-0.00044548,0.00
 031242,0.00015223,-0.00022548,-0.00036615,-0.00035063,0.00014210,-0.00
 015824,0.00004662,-0.00006251,-0.00019807,0.00041069,-0.00003137,0.000
 04829,0.00017275,-0.00003542,0.00018339,0.00008809,0.00002251,0.000145
 41,0.00005284,-0.00017352,0.00003450,-0.00000122,0.00002048,0.00005680
 ,0.00001462,0.00000468,0.00006564,-0.00004886,0.00007835,0.00018355,-0
 .00024532,0.00006477,0.00009821,-0.00008678,-0.00007656,-0.00003556,-0
 .00014755,0.00002226,-0.00668961,0.00735761,-0.07707615,-0.00449112,-0
 .00209649,0.00185889,-0.00041467,-0.00013243,0.00085136,-0.00059244,0.
 00087741,-0.00023663,-0.00403712,0.00044043,0.00219999,0.00039887,0.00
 013903,0.00106289,0.00065262,0.00131797,-0.00098406,0.00016423,-0.0000
 7296,-0.00015790,-0.00013333,-0.00005500,0.00003251,0.00007351,-0.0004
 5204,-0.00042804,0.00009429,0.00003762,-0.00002729,0.00070023,-0.00017
 567,0.00041024,0.00355722,-0.00219523,0.00152689,-0.00111735,-0.000921
 18,-0.00099748,0.00425842,0.01884886,-0.01554443,-0.00018889,-0.000191
 92,0.00095907,0.02999904,0.01700013,0.00234004,-0.02187702,-0.01546317
 ,0.00015955,-0.00064819,0.00046794,0.00044210,0.00118832,-0.00145189,0
 .00065376,0.00009880,0.00060626,-0.00024602,0.00022179,-0.00045681,0.0
 0009447,0.00091644,-0.00009069,-0.00147587,-0.00035489,-0.00021864,0.0
 0051772,-0.00056367,0.00016202,-0.00025515,0.00001341,0.00002509,0.000
 07017,0.00003985,-0.00006957,-0.00013873,-0.00004773,-0.00008884,0.000
 08549,-0.00278532,0.00015513,-0.00108623,-0.01991157,-0.11978989,0.280
 46015\\0.00000658,0.00000098,0.00000442,0.00001215,0.00001973,-0.00000
 708,-0.00000369,-0.00000846,0.00000381,0.00000339,0.00001188,0.0000012
 7,-0.00001315,-0.00001549,0.00000249,0.00001733,-0.00001047,-0.0000057
 2,-0.00001760,-0.00000056,-0.00000680,0.00000133,-0.00000313,0.0000008
 0,-0.00000017,0.00000238,-0.00000447,0.00000022,-0.00000686,-0.0000009
 4,-0.00000157,-0.00000794,0.00000097,0.00000330,-0.00001137,0.00000528
 ,-0.00000008,0.00000174,-0.00000674,-0.00000039,0.00000518,-0.00000465
 ,-0.00000092,0.00000200,-0.00000426,-0.00000680,0.00000299,-0.00000016
 ,0.00001430,0.00000380,0.00000299,0.00000297,0.00000450,0.00001004,0.0
 0000103,0.00000737,0.00000910,-0.00000579,0.00001309,0.00000831,0.0000
 0317,-0.00001996,-0.00000096,0.00000026,-0.00001190,0.00000563,-0.0000
 0235,-0.00000293,0.00000896,0.00000248,-0.00000197,-0.00000208,0.00000
 229,0.00000088,-0.00000009,-0.00000497,0.00000638,-0.00000474,0.000011
 40,0.00000307,-0.00000350,0.00000894,-0.00000131,-0.00000552,-0.000002
 40,-0.00000167,0.00000314,-0.00000276,-0.00000381,0.00000397,0.0000001
 4,-0.00000847,-0.00000229,0.00000091,-0.00000670,-0.00000012,0.0000026
 3,-0.00000909,0.00000204,-0.00000047,0.00000045,0.00000725,-0.00000060
 ,-0.00000083,0.00000522,-0.00000257,0.00000224,0.00000461,0.00000268,-
 0.00000159,0.00000412,-0.00000147,-0.00000345,0.00001040,0.00000490,-0
 .00000439,0.00000768,0.00000368,0.00000633,-0.00001342,-0.00000052,0.0
 0000768,0.00000219,-0.00000027,0.00000062,-0.00000013,-0.00000476,0.00
 000836,-0.00000054,-0.00000073,0.00000396,-0.00000219,-0.00000675,0.00
 000566,-0.00000269,0.00000844,-0.00001131,-0.00001370,-0.00000194,0.00
 000267,-0.00000528,0.00000361,-0.00000401,-0.00000857,0.00000249,-0.00
 000079,-0.00000758,-0.00000309,0.00000820,-0.00000499,-0.00000296,0.00
 000777,-0.00000542,-0.00001670,0.00000702,0.00000900,-0.00000206,-0.00
 000984,-0.00000349,0.00001982,-0.00000730,-0.00002742,0.00001431,0.000
 00233,-0.00000246,-0.00000424,0.00000831,-0.00000211,-0.00000666,-0.00
 000145,0.00000113,-0.00000154,-0.00000189,0.00000124,0.00000500,0.0000
 0063,-0.00000479,0.00000052,0.00001045,0.00000554,-0.00000246,0.000003
 70,0.00000208,-0.00000307,-0.00000203,0.00000153,-0.00000069,0.0000076
 0,-0.00000436,-0.00000119,0.00000517,-0.00000056,-0.00001007,0.0000028
 3,0.00001096,0.00000098,-0.00000128,0.00000152,-0.00000012,-0.00000171
 ,0.00000646,-0.00000871,-0.00001881,0.00001139,-0.00001496,0.00001482,
 0.00000430\\\@


 BULLDOZER: SOMEONE WHO SLEEPS THROUGH SPEECHES.
 Job cpu time:       5 days  1 hours  1 minutes 39.4 seconds.
 Elapsed time:       0 days  5 hours 10 minutes 43.3 seconds.
 File lengths (MBytes):  RWF=  13892 Int=      0 D2E=      0 Chk=    120 Scr=      8
 Normal termination of Gaussian 16 at Thu May  1 12:27:22 2025.
