 Entering Gaussian System, Link 0=/sysapps/ubuntu-applications/gaussian-new/avx/g16//g16
 Input=TS2.in
 Output=TS2.log
 Initial command:
 /sysapps/ubuntu-applications/gaussian-new/avx/g16/l1.exe "/data/temp-scratch/sgozem/308769/Gau-487493.inp" -scrdir="/data/temp-scratch/sgozem/308769/"
 Entering Link 1 = /sysapps/ubuntu-applications/gaussian-new/avx/g16/l1.exe PID=    487495.
  
 Copyright (c) 1988,1990,1992,1993,1995,1998,2003,2009,2016,
            Gaussian, Inc.  All Rights Reserved.
  
 This is part of the Gaussian(R) 16 program.  It is based on
 the Gaussian(R) 09 system (copyright 2009, Gaussian, Inc.),
 the Gaussian(R) 03 system (copyright 2003, Gaussian, Inc.),
 the Gaussian(R) 98 system (copyright 1998, Gaussian, Inc.),
 the Gaussian(R) 94 system (copyright 1995, Gaussian, Inc.),
 the Gaussian 92(TM) system (copyright 1992, Gaussian, Inc.),
 the Gaussian 90(TM) system (copyright 1990, Gaussian, Inc.),
 the Gaussian 88(TM) system (copyright 1988, Gaussian, Inc.),
 the Gaussian 86(TM) system (copyright 1986, Carnegie Mellon
 University), and the Gaussian 82(TM) system (copyright 1983,
 Carnegie Mellon University). Gaussian is a federally registered
 trademark of Gaussian, Inc.
  
 This software contains proprietary and confidential information,
 including trade secrets, belonging to Gaussian, Inc.
  
 This software is provided under written license and may be
 used, copied, transmitted, or stored only in accord with that
 written license.
  
 The following legend is applicable only to US Government
 contracts under FAR:
  
                    RESTRICTED RIGHTS LEGEND
  
 Use, reproduction and disclosure by the US Government is
 subject to restrictions as set forth in subparagraphs (a)
 and (c) of the Commercial Computer Software - Restricted
 Rights clause in FAR 52.227-19.
  
 Gaussian, Inc.
 340 Quinnipiac St., Bldg. 40, Wallingford CT 06492
  
  
 ---------------------------------------------------------------
 Warning -- This program may not be used in any manner that
 competes with the business of Gaussian, Inc. or will provide
 assistance to any competitor of Gaussian, Inc.  The licensee
 of this program is prohibited from giving any competitor of
 Gaussian, Inc. access to this program.  By using this program,
 the user acknowledges that Gaussian, Inc. is engaged in the
 business of creating and licensing software in the field of
 computational chemistry and represents and warrants to the
 licensee that it is not a competitor of Gaussian, Inc. and that
 it will not use this program in any manner prohibited above.
 ---------------------------------------------------------------
  

 Cite this work as:
 Gaussian 16, Revision A.03,
 M. J. Frisch, G. W. Trucks, H. B. Schlegel, G. E. Scuseria, 
 M. A. Robb, J. R. Cheeseman, G. Scalmani, V. Barone, 
 G. A. Petersson, H. Nakatsuji, X. Li, M. Caricato, A. V. Marenich, 
 J. Bloino, B. G. Janesko, R. Gomperts, B. Mennucci, H. P. Hratchian, 
 J. V. Ortiz, A. F. Izmaylov, J. L. Sonnenberg, D. Williams-Young, 
 F. Ding, F. Lipparini, F. Egidi, J. Goings, B. Peng, A. Petrone, 
 T. Henderson, D. Ranasinghe, V. G. Zakrzewski, J. Gao, N. Rega, 
 G. Zheng, W. Liang, M. Hada, M. Ehara, K. Toyota, R. Fukuda, 
 J. Hasegawa, M. Ishida, T. Nakajima, Y. Honda, O. Kitao, H. Nakai, 
 T. Vreven, K. Throssell, J. A. Montgomery, Jr., J. E. Peralta, 
 F. Ogliaro, M. J. Bearpark, J. J. Heyd, E. N. Brothers, K. N. Kudin, 
 V. N. Staroverov, T. A. Keith, R. Kobayashi, J. Normand, 
 K. Raghavachari, A. P. Rendell, J. C. Burant, S. S. Iyengar, 
 J. Tomasi, M. Cossi, J. M. Millam, M. Klene, C. Adamo, R. Cammi, 
 J. W. Ochterski, R. L. Martin, K. Morokuma, O. Farkas, 
 J. B. Foresman, and D. J. Fox, Gaussian, Inc., Wallingford CT, 2016.
 
 ******************************************
 Gaussian 16:  ES64L-G16RevA.03 25-Dec-2016
                 2-May-2025 
 ******************************************
 %chk=TS2.chk
 %mem=92Gb
 %nprocshared=24
 Will use up to   24 processors via shared memory.
 ----------------------------------------------------------------------
 #P UMN15/genecp scf=(maxcyc=500) irc=(maxpoints=100,recorrect=never,ca
 lcfc,maxcycles=500,nogradstop) scrf=(smd,solvent=DiChloroEthane)
 ----------------------------------------------------------------------
 1/6=500,10=4,18=10,26=3,38=1,42=100,44=3,108=-1,131=1,172=1/1,23;
 2/12=2,17=6,18=5,29=1,40=1/2;
 3/5=7,11=2,16=1,17=8,25=1,30=1,70=32201,71=2,72=10,74=-73,116=2,140=1/1,2,3;
 4//1;
 5/5=2,7=500,38=5,53=10/2;
 8/6=4,10=90,11=11/1;
 11/6=1,8=1,9=11,15=111,16=1/1,2,10;
 10/6=1,13=1/2;
 6/7=2,8=2,9=2,10=2,28=1/1;
 7/10=1,18=20,25=1/1,2,3,16;
 1/6=500,10=4,18=10,26=3,42=100,44=3,108=-1,131=1/23(2);
 2/29=1/2;
 99/5=20/99;
 2/29=1/2;
 3/5=7,6=1,11=2,16=1,17=8,25=1,30=1,70=32205,71=2,72=10,74=-73,82=7,116=2,140=1/1,2,3;
 4/5=5,16=3,69=1/1;
 5/5=2,7=500,38=5,53=10/2;
 8/6=4,10=90,11=11/1;
 11/6=1,8=1,9=11,15=111,16=1/1,2,10;
 10/6=1,13=1/2;
 7/10=1,18=20,25=1/1,2,3,16;
 1/6=500,18=10,26=3,42=100,44=3,108=-1,131=1/23(-8);
 2/29=1/2;
 6/7=2,8=2,9=2,10=2,19=2,28=1/1;
 99/5=20,9=1/99;
 Leave Link    1 at Fri May  2 09:19:53 2025, MaxMem= 12348030976 cpu:            1369.8 elap:              59.6
 (Enter /sysapps/ubuntu-applications/gaussian-new/avx/g16/l101.exe)
 ---
 Opt
 ---
 Symbolic Z-matrix:
 Charge =  0 Multiplicity = 1
 C                    -5.63449   0.59057  -0.22275 
 C                    -6.52664   0.29286  -1.27082 
 C                    -7.82926   0.78094  -1.22331 
 C                    -8.24149   1.55445  -0.13386 
 C                    -7.35588   1.85227   0.91042 
 C                    -6.05041   1.37779   0.87048 
 C                    -2.02527   0.39469   0.27945 
 C                    -1.43731   0.84584  -0.92866 
 C                    -1.29567  -0.07684   1.39357 
 H                    -6.18559  -0.3097   -2.11543 
 H                    -8.52476   0.56075  -2.03508 
 H                    -9.26489   1.93468  -0.09797 
 H                    -7.68968   2.45961   1.75375 
 H                    -5.34558   1.60176   1.67356 
 O                    -0.05677  -0.2933    1.41273 
 O                    -0.20459   0.86064  -1.1667 
 O                    -2.29243   1.2728   -1.84331 
 O                    -2.03153  -0.33258   2.46364 
 C                    -1.77028   1.67628  -3.10991 
 C                    -1.37257  -0.74897   3.65765 
 H                    -2.6342    1.96482  -3.71751 
 H                    -1.23402   0.84311  -3.58473 
 H                    -1.08869   2.52775  -2.99605 
 H                    -2.16762  -0.95591   4.38318 
 H                    -0.71939   0.05081   4.03362 
 H                    -0.76959  -1.65157   3.48274 
 O                     2.92415  -1.33269   0.96066 
 O                     2.59965  -0.15707  -1.90869 
 O                     0.70066   2.38984   1.09208 
 S                     1.56671   3.3021    0.29587 
 S                     3.66369  -0.49236   1.95343 
 S                     1.9314   -1.473    -2.15812 
 O                     2.38451   2.4166   -0.5946 
 O                     2.25943   4.35902   0.98666 
 O                     2.99034   0.84041   1.91458 
 O                     3.96146  -1.06947   3.23674 
 O                     0.99844  -1.68066  -1.01637 
 O                     1.41751  -1.71447  -3.4841 
 C                     3.2825   -2.73696  -1.90483 
 C                     5.26475  -0.17527   1.10761 
 C                     0.39289   4.16057  -0.87986 
 F                     2.84924  -3.67854  -1.08568 
 F                     4.35773  -2.1683   -1.39821 
 F                     3.58193  -3.27638  -3.0712 
 F                     5.0061    0.38636  -0.06409 
 F                     5.90468  -1.31321   0.92372 
 F                     6.00184   0.6391    1.83639 
 F                    -0.84081   3.72166  -0.69041 
 F                     0.75352   3.91813  -2.12696 
 F                     0.42978   5.45851  -0.65598 
 C                    -4.2841    0.08202  -0.29197 
 H                    -3.93654  -0.46552  -1.17659 
 C                    -4.56035  -2.03067   0.65506 
 C                    -5.57802  -2.55046  -0.19358 
 C                    -4.90533  -1.60851   1.9667 
 C                    -1.25758  -3.60467   1.26873 
 C                    -1.67732  -3.19273  -1.04402 
 C                    -0.81241  -3.66515  -0.03713 
 H                    -0.66061  -3.96196   2.10853 
 H                    -1.38892  -3.20978  -2.09708 
 H                     0.17216  -4.05075  -0.29729 
 N                    -6.41791  -2.9165   -0.91085 
 N                    -5.18271  -1.188     3.01616 
 N                    -3.26189  -2.63156   0.47614 
 N                    -2.86489  -2.68522  -0.78842 
 C                    -2.53027  -3.08515   1.50546 
 H                    -2.98093  -3.03512   2.49811 
 Lu                    1.55897   0.37769   0.09301 
 O                    -3.39257   0.62329   0.48615 
 
 ITRead=  0  0  0  0  0  0  0  0  0  0  0  0  0  0  0  0  0  0  0  0
 ITRead=  0  0  0  0  0  0  0  0  0  0  0  0  0  0  0  0  0  0  0  0
 ITRead=  0  0  0  0  0  0  0  0  0  0  0  0  0  0  0  0  0  0  0  0
 ITRead=  0  0  0  0  0  0  0  0  0
 MicOpt= -1 -1 -1 -1 -1 -1 -1 -1 -1 -1 -1 -1 -1 -1 -1 -1 -1 -1 -1 -1
 MicOpt= -1 -1 -1 -1 -1 -1 -1 -1 -1 -1 -1 -1 -1 -1 -1 -1 -1 -1 -1 -1
 MicOpt= -1 -1 -1 -1 -1 -1 -1 -1 -1 -1 -1 -1 -1 -1 -1 -1 -1 -1 -1 -1
 MicOpt= -1 -1 -1 -1 -1 -1 -1 -1 -1
 NAtoms=     69 NQM=       69 NQMF=       0 NMMI=      0 NMMIF=      0
                NMic=       0 NMicF=      0.
                    Isotopes and Nuclear Properties:
 (Nuclear quadrupole moments (NQMom) in fm**2, nuclear magnetic moments (NMagM)
  in nuclear magnetons)

  Atom         1           2           3           4           5           6           7           8           9          10
 IAtWgt=          12          12          12          12          12          12          12          12          12           1
 AtmWgt=  12.0000000  12.0000000  12.0000000  12.0000000  12.0000000  12.0000000  12.0000000  12.0000000  12.0000000   1.0078250
 NucSpn=           0           0           0           0           0           0           0           0           0           1
 AtZEff=  -0.0000000  -0.0000000  -0.0000000  -0.0000000  -0.0000000  -0.0000000  -0.0000000  -0.0000000  -0.0000000  -0.0000000
 NQMom=    0.0000000   0.0000000   0.0000000   0.0000000   0.0000000   0.0000000   0.0000000   0.0000000   0.0000000   0.0000000
 NMagM=    0.0000000   0.0000000   0.0000000   0.0000000   0.0000000   0.0000000   0.0000000   0.0000000   0.0000000   2.7928460
 AtZNuc=   6.0000000   6.0000000   6.0000000   6.0000000   6.0000000   6.0000000   6.0000000   6.0000000   6.0000000   1.0000000

  Atom        11          12          13          14          15          16          17          18          19          20
 IAtWgt=           1           1           1           1          16          16          16          16          12          12
 AtmWgt=   1.0078250   1.0078250   1.0078250   1.0078250  15.9949146  15.9949146  15.9949146  15.9949146  12.0000000  12.0000000
 NucSpn=           1           1           1           1           0           0           0           0           0           0
 AtZEff=  -0.0000000  -0.0000000  -0.0000000  -0.0000000  -0.0000000  -0.0000000  -0.0000000  -0.0000000  -0.0000000  -0.0000000
 NQMom=    0.0000000   0.0000000   0.0000000   0.0000000   0.0000000   0.0000000   0.0000000   0.0000000   0.0000000   0.0000000
 NMagM=    2.7928460   2.7928460   2.7928460   2.7928460   0.0000000   0.0000000   0.0000000   0.0000000   0.0000000   0.0000000
 AtZNuc=   1.0000000   1.0000000   1.0000000   1.0000000   8.0000000   8.0000000   8.0000000   8.0000000   6.0000000   6.0000000

  Atom        21          22          23          24          25          26          27          28          29          30
 IAtWgt=           1           1           1           1           1           1          16          16          16          32
 AtmWgt=   1.0078250   1.0078250   1.0078250   1.0078250   1.0078250   1.0078250  15.9949146  15.9949146  15.9949146  31.9720718
 NucSpn=           1           1           1           1           1           1           0           0           0           0
 AtZEff=  -0.0000000  -0.0000000  -0.0000000  -0.0000000  -0.0000000  -0.0000000  -0.0000000  -0.0000000  -0.0000000  -0.0000000
 NQMom=    0.0000000   0.0000000   0.0000000   0.0000000   0.0000000   0.0000000   0.0000000   0.0000000   0.0000000   0.0000000
 NMagM=    2.7928460   2.7928460   2.7928460   2.7928460   2.7928460   2.7928460   0.0000000   0.0000000   0.0000000   0.0000000
 AtZNuc=   1.0000000   1.0000000   1.0000000   1.0000000   1.0000000   1.0000000   8.0000000   8.0000000   8.0000000  16.0000000

  Atom        31          32          33          34          35          36          37          38          39          40
 IAtWgt=          32          32          16          16          16          16          16          16          12          12
 AtmWgt=  31.9720718  31.9720718  15.9949146  15.9949146  15.9949146  15.9949146  15.9949146  15.9949146  12.0000000  12.0000000
 NucSpn=           0           0           0           0           0           0           0           0           0           0
 AtZEff=  -0.0000000  -0.0000000  -0.0000000  -0.0000000  -0.0000000  -0.0000000  -0.0000000  -0.0000000  -0.0000000  -0.0000000
 NQMom=    0.0000000   0.0000000   0.0000000   0.0000000   0.0000000   0.0000000   0.0000000   0.0000000   0.0000000   0.0000000
 NMagM=    0.0000000   0.0000000   0.0000000   0.0000000   0.0000000   0.0000000   0.0000000   0.0000000   0.0000000   0.0000000
 AtZNuc=  16.0000000  16.0000000   8.0000000   8.0000000   8.0000000   8.0000000   8.0000000   8.0000000   6.0000000   6.0000000

  Atom        41          42          43          44          45          46          47          48          49          50
 IAtWgt=          12          19          19          19          19          19          19          19          19          19
 AtmWgt=  12.0000000  18.9984032  18.9984032  18.9984032  18.9984032  18.9984032  18.9984032  18.9984032  18.9984032  18.9984032
 NucSpn=           0           1           1           1           1           1           1           1           1           1
 AtZEff=  -0.0000000  -0.0000000  -0.0000000  -0.0000000  -0.0000000  -0.0000000  -0.0000000  -0.0000000  -0.0000000  -0.0000000
 NQMom=    0.0000000   0.0000000   0.0000000   0.0000000   0.0000000   0.0000000   0.0000000   0.0000000   0.0000000   0.0000000
 NMagM=    0.0000000   2.6288670   2.6288670   2.6288670   2.6288670   2.6288670   2.6288670   2.6288670   2.6288670   2.6288670
 AtZNuc=   6.0000000   9.0000000   9.0000000   9.0000000   9.0000000   9.0000000   9.0000000   9.0000000   9.0000000   9.0000000

  Atom        51          52          53          54          55          56          57          58          59          60
 IAtWgt=          12           1          12          12          12          12          12          12           1           1
 AtmWgt=  12.0000000   1.0078250  12.0000000  12.0000000  12.0000000  12.0000000  12.0000000  12.0000000   1.0078250   1.0078250
 NucSpn=           0           1           0           0           0           0           0           0           1           1
 AtZEff=  -0.0000000  -0.0000000  -0.0000000  -0.0000000  -0.0000000  -0.0000000  -0.0000000  -0.0000000  -0.0000000  -0.0000000
 NQMom=    0.0000000   0.0000000   0.0000000   0.0000000   0.0000000   0.0000000   0.0000000   0.0000000   0.0000000   0.0000000
 NMagM=    0.0000000   2.7928460   0.0000000   0.0000000   0.0000000   0.0000000   0.0000000   0.0000000   2.7928460   2.7928460
 AtZNuc=   6.0000000   1.0000000   6.0000000   6.0000000   6.0000000   6.0000000   6.0000000   6.0000000   1.0000000   1.0000000

  Atom        61          62          63          64          65          66          67          68          69
 IAtWgt=           1          14          14          14          14          12           1         175          16
 AtmWgt=   1.0078250  14.0030740  14.0030740  14.0030740  14.0030740  12.0000000   1.0078250 174.9409000  15.9949146
 NucSpn=           1           2           2           2           2           0           1           7           0
 AtZEff=  -0.0000000  -0.0000000  -0.0000000  -0.0000000  -0.0000000  -0.0000000  -0.0000000  -0.0000000  -0.0000000
 NQMom=    0.0000000   2.0440000   2.0440000   2.0440000   2.0440000   0.0000000   0.0000000 349.0000000   0.0000000
 NMagM=    2.7928460   0.4037610   0.4037610   0.4037610   0.4037610   0.0000000   2.7928460   2.2327000   0.0000000
 AtZNuc=   1.0000000   7.0000000   7.0000000   7.0000000   7.0000000   6.0000000   1.0000000  71.0000000   8.0000000
 Leave Link  101 at Fri May  2 09:19:53 2025, MaxMem= 12348030976 cpu:               6.0 elap:               0.3
 (Enter /sysapps/ubuntu-applications/gaussian-new/avx/g16/l123.exe)
 IRC-IRC-IRC-IRC-IRC-IRC-IRC-IRC-IRC-IRC-IRC-IRC-IRC-IRC-IRC-IRC-IRC-IRC
 ------------------------------------------------------------------------
 INPUT DATA FOR L123
 ------------------------------------------------------------------------
 GENERAL PARAMETERS:
 Follow reaction path in both directions.
 Maximum points per path      = 100
 Step size                    =   0.100 bohr
 Integration scheme           = HPC                                 
    Redo corrector integration= Never                               
    DWI Weight Power          =  2
    DWI will use Hessian update vectors when possible.
 Initial Hessian              = CalcFC
 Hessian evaluation           = All updating
 Hessian updating method      = Bofill                              
 ------------------------------------------------------------------------
 IRC-IRC-IRC-IRC-IRC-IRC-IRC-IRC-IRC-IRC-IRC-IRC-IRC-IRC-IRC-IRC-IRC-IRC
 Leave Link  123 at Fri May  2 09:19:53 2025, MaxMem= 12348030976 cpu:               0.3 elap:               0.0
 (Enter /sysapps/ubuntu-applications/gaussian-new/avx/g16/l202.exe)
 Symmetry turned off by external request.
 Stoichiometry    C22H16F9LuN4O14S3
 Framework group  C1[X(C22H16F9LuN4O14S3)]
 Deg. of freedom   201
 Full point group                 C1      NOp   1
                          Input orientation:                          
 ---------------------------------------------------------------------
 Center     Atomic      Atomic             Coordinates (Angstroms)
 Number     Number       Type             X           Y           Z
 ---------------------------------------------------------------------
      1          6           0       -5.634490    0.590574   -0.222754
      2          6           0       -6.526642    0.292861   -1.270817
      3          6           0       -7.829262    0.780939   -1.223313
      4          6           0       -8.241487    1.554448   -0.133858
      5          6           0       -7.355875    1.852273    0.910416
      6          6           0       -6.050409    1.377785    0.870481
      7          6           0       -2.025265    0.394686    0.279446
      8          6           0       -1.437313    0.845841   -0.928656
      9          6           0       -1.295671   -0.076841    1.393569
     10          1           0       -6.185593   -0.309699   -2.115433
     11          1           0       -8.524761    0.560746   -2.035076
     12          1           0       -9.264893    1.934679   -0.097971
     13          1           0       -7.689675    2.459605    1.753752
     14          1           0       -5.345581    1.601759    1.673559
     15          8           0       -0.056773   -0.293303    1.412728
     16          8           0       -0.204591    0.860638   -1.166699
     17          8           0       -2.292434    1.272798   -1.843307
     18          8           0       -2.031530   -0.332577    2.463641
     19          6           0       -1.770283    1.676277   -3.109910
     20          6           0       -1.372565   -0.748967    3.657647
     21          1           0       -2.634200    1.964820   -3.717506
     22          1           0       -1.234017    0.843111   -3.584733
     23          1           0       -1.088695    2.527748   -2.996048
     24          1           0       -2.167624   -0.955910    4.383184
     25          1           0       -0.719391    0.050812    4.033621
     26          1           0       -0.769589   -1.651572    3.482743
     27          8           0        2.924147   -1.332694    0.960662
     28          8           0        2.599654   -0.157068   -1.908692
     29          8           0        0.700663    2.389837    1.092080
     30         16           0        1.566714    3.302095    0.295865
     31         16           0        3.663687   -0.492359    1.953429
     32         16           0        1.931398   -1.473004   -2.158115
     33          8           0        2.384512    2.416604   -0.594599
     34          8           0        2.259426    4.359024    0.986664
     35          8           0        2.990341    0.840409    1.914580
     36          8           0        3.961455   -1.069469    3.236736
     37          8           0        0.998443   -1.680664   -1.016369
     38          8           0        1.417509   -1.714472   -3.484096
     39          6           0        3.282500   -2.736956   -1.904831
     40          6           0        5.264746   -0.175266    1.107607
     41          6           0        0.392887    4.160567   -0.879856
     42          9           0        2.849238   -3.678537   -1.085678
     43          9           0        4.357730   -2.168299   -1.398212
     44          9           0        3.581932   -3.276379   -3.071204
     45          9           0        5.006105    0.386357   -0.064093
     46          9           0        5.904682   -1.313214    0.923721
     47          9           0        6.001839    0.639099    1.836390
     48          9           0       -0.840810    3.721661   -0.690411
     49          9           0        0.753519    3.918126   -2.126961
     50          9           0        0.429783    5.458512   -0.655982
     51          6           0       -4.284102    0.082021   -0.291969
     52          1           0       -3.936537   -0.465520   -1.176589
     53          6           0       -4.560353   -2.030670    0.655059
     54          6           0       -5.578023   -2.550461   -0.193581
     55          6           0       -4.905329   -1.608509    1.966697
     56          6           0       -1.257579   -3.604666    1.268726
     57          6           0       -1.677324   -3.192730   -1.044019
     58          6           0       -0.812406   -3.665146   -0.037125
     59          1           0       -0.660607   -3.961960    2.108526
     60          1           0       -1.388920   -3.209784   -2.097075
     61          1           0        0.172163   -4.050755   -0.297288
     62          7           0       -6.417911   -2.916499   -0.910852
     63          7           0       -5.182710   -1.187998    3.016161
     64          7           0       -3.261890   -2.631564    0.476136
     65          7           0       -2.864894   -2.685220   -0.788422
     66          6           0       -2.530266   -3.085155    1.505462
     67          1           0       -2.980934   -3.035120    2.498109
     68         71           0        1.558969    0.377692    0.093010
     69          8           0       -3.392571    0.623286    0.486151
 ---------------------------------------------------------------------
 Rotational constants (GHZ):           0.0753646           0.0358885           0.0311076
 Leave Link  202 at Fri May  2 09:19:53 2025, MaxMem= 12348030976 cpu:               0.2 elap:               0.0
 (Enter /sysapps/ubuntu-applications/gaussian-new/avx/g16/l301.exe)
 General basis read from cards:  (5D, 7F)
 Centers:      10     11     12     13     14     21     22     23     24     25
 Centers:      26     52     59     60     61     67
 S 3 1.00
     Exponent=  1.3010701000D+01 Coefficients=  1.9682158000D-02
     Exponent=  1.9622572000D+00 Coefficients=  1.3796524000D-01
     Exponent=  4.4453796000D-01 Coefficients=  4.7831935000D-01
 S 1 1.00
     Exponent=  1.2194962000D-01 Coefficients=  1.0000000000D+00
 P 1 1.00
     Exponent=  8.0000000000D-01 Coefficients=  1.0000000000D+00
 ****
 Centers:       1      2      3      4      5      6      7      8      9     19
 Centers:      20     39     40     41     51     53     54     55     56     57
 Centers:      58     66
 S 5 1.00
     Exponent=  1.2384016938D+03 Coefficients=  5.4568832082D-03
     Exponent=  1.8629004992D+02 Coefficients=  4.0638409211D-02
     Exponent=  4.2251176346D+01 Coefficients=  1.8025593888D-01
     Exponent=  1.1676557932D+01 Coefficients=  4.6315121755D-01
     Exponent=  3.5930506482D+00 Coefficients=  4.4087173314D-01
 S 1 1.00
     Exponent=  4.0245147363D-01 Coefficients=  1.0000000000D+00
 S 1 1.00
     Exponent=  1.3090182668D-01 Coefficients=  1.0000000000D+00
 P 3 1.00
     Exponent=  9.4680970621D+00 Coefficients=  3.8387871728D-02
     Exponent=  2.0103545142D+00 Coefficients=  2.1117025112D-01
     Exponent=  5.4771004707D-01 Coefficients=  5.1328172114D-01
 P 1 1.00
     Exponent=  1.5268613795D-01 Coefficients=  1.0000000000D+00
 D 1 1.00
     Exponent=  8.0000000000D-01 Coefficients=  1.0000000000D+00
 ****
 Centers:      62     63     64     65
 S 5 1.00
     Exponent=  1.7128415853D+03 Coefficients= -5.3934125305D-03
     Exponent=  2.5764812677D+02 Coefficients= -4.0221581118D-02
     Exponent=  5.8458245853D+01 Coefficients= -1.7931144990D-01
     Exponent=  1.6198367905D+01 Coefficients= -4.6376317823D-01
     Exponent=  5.0052600809D+00 Coefficients= -4.4171422662D-01
 S 1 1.00
     Exponent=  5.8731856571D-01 Coefficients=  1.0000000000D+00
 S 1 1.00
     Exponent=  1.8764592253D-01 Coefficients=  1.0000000000D+00
 P 3 1.00
     Exponent=  1.3571470233D+01 Coefficients= -4.0072398852D-02
     Exponent=  2.9257372874D+00 Coefficients= -2.1807045028D-01
     Exponent=  7.9927750754D-01 Coefficients= -5.1294466049D-01
 P 1 1.00
     Exponent=  2.1954348034D-01 Coefficients=  1.0000000000D+00
 D 1 1.00
     Exponent=  1.0000000000D+00 Coefficients=  1.0000000000D+00
 ****
 Centers:      15     16     17     18     27     28     29     33     34     35
 Centers:      36     37     38     69
 S 5 1.00
     Exponent=  2.2661767785D+03 Coefficients= -5.3431809926D-03
     Exponent=  3.4087010191D+02 Coefficients= -3.9890039230D-02
     Exponent=  7.7363135167D+01 Coefficients= -1.7853911985D-01
     Exponent=  2.1479644940D+01 Coefficients= -4.6427684959D-01
     Exponent=  6.6589433124D+00 Coefficients= -4.4309745172D-01
 S 1 1.00
     Exponent=  8.0975975668D-01 Coefficients=  1.0000000000D+00
 S 1 1.00
     Exponent=  2.5530772234D-01 Coefficients=  1.0000000000D+00
 P 3 1.00
     Exponent=  1.7721504317D+01 Coefficients=  4.3394573193D-02
     Exponent=  3.8635505440D+00 Coefficients=  2.3094120765D-01
     Exponent=  1.0480920883D+00 Coefficients=  5.1375311064D-01
 P 1 1.00
     Exponent=  2.7641544411D-01 Coefficients=  1.0000000000D+00
 D 1 1.00
     Exponent=  1.2000000000D+00 Coefficients=  1.0000000000D+00
 ****
 Centers:      42     43     44     45     46     47     48     49     50
 S 5 1.00
     Exponent=  2.8948325990D+03 Coefficients= -5.3408255515D-03
     Exponent=  4.3541939120D+02 Coefficients= -3.9904258866D-02
     Exponent=  9.8843328866D+01 Coefficients= -1.7912768038D-01
     Exponent=  2.7485198001D+01 Coefficients= -4.6758090825D-01
     Exponent=  8.5405498171D+00 Coefficients= -4.4653131020D-01
 S 1 1.00
     Exponent=  1.0654578038D+00 Coefficients=  1.0000000000D+00
 S 1 1.00
     Exponent=  3.3247346748D-01 Coefficients=  1.0000000000D+00
 P 3 1.00
     Exponent=  2.2696633924D+01 Coefficients= -4.5212874436D-02
     Exponent=  4.9872339257D+00 Coefficients= -2.3754317067D-01
     Exponent=  1.3491613954D+00 Coefficients= -5.1287353587D-01
 P 1 1.00
     Exponent=  3.4829881977D-01 Coefficients=  1.0000000000D+00
 D 1 1.00
     Exponent=  1.4000000000D+00 Coefficients=  1.0000000000D+00
 ****
 Centers:      30     31     32
 S 5 1.00
     Exponent=  9.1849303010D+03 Coefficients= -2.2294387756D-03
     Exponent=  1.3815105503D+03 Coefficients= -1.6683029937D-02
     Exponent=  3.1387147580D+02 Coefficients= -7.5262436116D-02
     Exponent=  8.8053870623D+01 Coefficients= -1.9376827038D-01
     Exponent=  2.7039914905D+01 Coefficients= -1.7718020803D-01
 S 3 1.00
     Exponent=  4.5648731303D+01 Coefficients= -1.0736062573D-01
     Exponent=  4.9664522326D+00 Coefficients=  6.5066293018D-01
     Exponent=  2.0116242047D+00 Coefficients=  5.9712155354D-01
 S 1 1.00
     Exponent=  3.5661077013D-01 Coefficients=  1.0000000000D+00
 S 1 1.00
     Exponent=  1.3507221477D-01 Coefficients=  1.0000000000D+00
 P 5 1.00
     Exponent=  2.6198233439D+02 Coefficients= -9.2729929822D-03
     Exponent=  6.1306894736D+01 Coefficients= -6.6547669241D-02
     Exponent=  1.9103729887D+01 Coefficients= -2.4828595903D-01
     Exponent=  6.6567720378D+00 Coefficients= -4.8703847402D-01
     Exponent=  2.3959635161D+00 Coefficients= -3.9337850312D-01
 P 1 1.00
     Exponent=  6.1776161679D-01 Coefficients=  1.0000000000D+00
 P 1 1.00
     Exponent=  1.6993376871D-01 Coefficients=  1.0000000000D+00
 D 1 1.00
     Exponent=  5.5000000000D-01 Coefficients=  1.0000000000D+00
 ****
 Centers:      68
 S 5 1.00
     Exponent=  9.5169767000D+04 Coefficients=  2.2000000000D-05
     Exponent=  1.5488403000D+04 Coefficients=  1.4500000000D-04
     Exponent=  3.7762335000D+03 Coefficients=  6.5100000000D-04
     Exponent=  1.0790501000D+03 Coefficients=  2.0380000000D-03
     Exponent=  2.6895380000D+02 Coefficients=  5.1270000000D-03
 S 1 1.00
     Exponent=  6.3467900000D+01 Coefficients=  1.0000000000D+00
 S 1 1.00
     Exponent=  4.5133200000D+01 Coefficients=  1.0000000000D+00
 S 1 1.00
     Exponent=  2.1456800000D+01 Coefficients=  1.0000000000D+00
 S 1 1.00
     Exponent=  5.3483000000D+00 Coefficients=  1.0000000000D+00
 S 1 1.00
     Exponent=  2.6778000000D+00 Coefficients=  1.0000000000D+00
 S 1 1.00
     Exponent=  1.0287000000D+00 Coefficients=  1.0000000000D+00
 S 1 1.00
     Exponent=  4.4080000000D-01 Coefficients=  1.0000000000D+00
 S 1 1.00
     Exponent=  7.9100000000D-02 Coefficients=  1.0000000000D+00
 S 1 1.00
     Exponent=  3.1300000000D-02 Coefficients=  1.0000000000D+00
 P 3 1.00
     Exponent=  1.2333733920D+01 Coefficients= -1.5313031066D-01
     Exponent=  1.1080331415D+01 Coefficients= -2.0300664852D-01
     Exponent=  2.0341747228D+00 Coefficients= -1.9458361263D-01
 P 6 1.00
     Exponent=  1.5005317313D+03 Coefficients= -1.0192569555D-03
     Exponent=  3.8239748937D+02 Coefficients= -5.9476212135D-03
     Exponent=  1.3299969628D+02 Coefficients= -1.6265160929D-02
     Exponent=  4.6110032419D+01 Coefficients= -3.5623845839D-02
     Exponent=  1.5583529011D+01 Coefficients=  2.3709171074D-01
     Exponent=  5.7856677022D+00 Coefficients= -3.0670977844D-01
 P 1 1.00
     Exponent=  3.7823361008D+00 Coefficients=  1.0000000000D+00
 P 1 1.00
     Exponent=  1.3682592248D+00 Coefficients=  1.0000000000D+00
 P 1 1.00
     Exponent=  5.7288205601D-01 Coefficients=  1.0000000000D+00
 P 1 1.00
     Exponent=  2.2793165135D-01 Coefficients=  1.0000000000D+00
 P 1 1.00
     Exponent=  8.1403917986D-02 Coefficients=  1.0000000000D+00
 P 1 1.00
     Exponent=  2.9091071778D-02 Coefficients=  1.0000000000D+00
 D 6 1.00
     Exponent=  4.8452750000D+02 Coefficients=  2.2860000000D-03
     Exponent=  1.4666550000D+02 Coefficients=  1.8629000000D-02
     Exponent=  5.6377900000D+01 Coefficients=  7.4088000000D-02
     Exponent=  2.3671100000D+01 Coefficients=  1.6155400000D-01
     Exponent=  9.4401000000D+00 Coefficients=  3.0809100000D-01
     Exponent=  4.3712000000D+00 Coefficients=  4.4833400000D-01
 D 1 1.00
     Exponent=  1.9580000000D+00 Coefficients=  1.0000000000D+00
 D 1 1.00
     Exponent=  7.2720000000D-01 Coefficients=  1.0000000000D+00
 D 1 1.00
     Exponent=  2.4600000000D-01 Coefficients=  1.0000000000D+00
 D 1 1.00
     Exponent=  7.4400000000D-02 Coefficients=  1.0000000000D+00
 F 5 1.00
     Exponent=  1.7515590000D+02 Coefficients=  4.1020000000D-03
     Exponent=  6.2890900000D+01 Coefficients=  3.9086000000D-02
     Exponent=  2.8362400000D+01 Coefficients=  1.4704400000D-01
     Exponent=  1.3247800000D+01 Coefficients=  2.7109200000D-01
     Exponent=  6.1440000000D+00 Coefficients=  3.4566500000D-01
 F 1 1.00
     Exponent=  2.7623000000D+00 Coefficients=  1.0000000000D+00
 F 1 1.00
     Exponent=  1.1574000000D+00 Coefficients=  1.0000000000D+00
 F 1 1.00
     Exponent=  4.2440000000D-01 Coefficients=  1.0000000000D+00
 G 1 1.00
     Exponent=  7.0090000000D-01 Coefficients=  1.0000000000D+00
 ****
 ======================================================================================================
                                       Pseudopotential Parameters
 ======================================================================================================
  Center     Atomic      Valence      Angular      Power
  Number     Number     Electrons     Momentum     of R      Exponent        Coefficient   SO-Coeffient
 ======================================================================================================
    1          6
                                   No pseudopotential on this center.
    2          6
                                   No pseudopotential on this center.
    3          6
                                   No pseudopotential on this center.
    4          6
                                   No pseudopotential on this center.
    5          6
                                   No pseudopotential on this center.
    6          6
                                   No pseudopotential on this center.
    7          6
                                   No pseudopotential on this center.
    8          6
                                   No pseudopotential on this center.
    9          6
                                   No pseudopotential on this center.
   10          1
                                   No pseudopotential on this center.
   11          1
                                   No pseudopotential on this center.
   12          1
                                   No pseudopotential on this center.
   13          1
                                   No pseudopotential on this center.
   14          1
                                   No pseudopotential on this center.
   15          8
                                   No pseudopotential on this center.
   16          8
                                   No pseudopotential on this center.
   17          8
                                   No pseudopotential on this center.
   18          8
                                   No pseudopotential on this center.
   19          6
                                   No pseudopotential on this center.
   20          6
                                   No pseudopotential on this center.
   21          1
                                   No pseudopotential on this center.
   22          1
                                   No pseudopotential on this center.
   23          1
                                   No pseudopotential on this center.
   24          1
                                   No pseudopotential on this center.
   25          1
                                   No pseudopotential on this center.
   26          1
                                   No pseudopotential on this center.
   27          8
                                   No pseudopotential on this center.
   28          8
                                   No pseudopotential on this center.
   29          8
                                   No pseudopotential on this center.
   30         16
                                   No pseudopotential on this center.
   31         16
                                   No pseudopotential on this center.
   32         16
                                   No pseudopotential on this center.
   33          8
                                   No pseudopotential on this center.
   34          8
                                   No pseudopotential on this center.
   35          8
                                   No pseudopotential on this center.
   36          8
                                   No pseudopotential on this center.
   37          8
                                   No pseudopotential on this center.
   38          8
                                   No pseudopotential on this center.
   39          6
                                   No pseudopotential on this center.
   40          6
                                   No pseudopotential on this center.
   41          6
                                   No pseudopotential on this center.
   42          9
                                   No pseudopotential on this center.
   43          9
                                   No pseudopotential on this center.
   44          9
                                   No pseudopotential on this center.
   45          9
                                   No pseudopotential on this center.
   46          9
                                   No pseudopotential on this center.
   47          9
                                   No pseudopotential on this center.
   48          9
                                   No pseudopotential on this center.
   49          9
                                   No pseudopotential on this center.
   50          9
                                   No pseudopotential on this center.
   51          6
                                   No pseudopotential on this center.
   52          1
                                   No pseudopotential on this center.
   53          6
                                   No pseudopotential on this center.
   54          6
                                   No pseudopotential on this center.
   55          6
                                   No pseudopotential on this center.
   56          6
                                   No pseudopotential on this center.
   57          6
                                   No pseudopotential on this center.
   58          6
                                   No pseudopotential on this center.
   59          1
                                   No pseudopotential on this center.
   60          1
                                   No pseudopotential on this center.
   61          1
                                   No pseudopotential on this center.
   62          7
                                   No pseudopotential on this center.
   63          7
                                   No pseudopotential on this center.
   64          7
                                   No pseudopotential on this center.
   65          7
                                   No pseudopotential on this center.
   66          6
                                   No pseudopotential on this center.
   67          1
                                   No pseudopotential on this center.
   68         71           43
                                      H and up 
                                                     2        1.0000000        0.00000000    0.00000000
                                      S - H
                                                     2       35.1620970      989.99558400    0.00000000
                                      P - H
                                                     2       19.4644020      278.86565200    0.00000000
                                      D - H
                                                     2       10.0068650       71.00917800    0.00000000
                                      F - H
                                                     2       23.5179320      -47.40589000    0.00000000
                                      G - H
                                                     2       29.4122380      -35.55714600    0.00000000
   69          8
                                   No pseudopotential on this center.
 ======================================================================================================
 Ernie: Thresh=  0.10000D-02 Tol=  0.10000D-05 Strict=F.
   916 basis functions,  1662 primitive gaussians,   991 cartesian basis functions
   230 alpha electrons      230 beta electrons
       nuclear repulsion energy     11732.5515639307 Hartrees.
 IExCor= 7252 DFT=T Ex+Corr=MN15 ExCW=0 ScaHFX=  0.440000
 ScaDFX=  1.000000  1.000000  1.000000  1.000000 ScalE2=  1.000000  1.000000
 IRadAn=      5 IRanWt=     -1 IRanGd=            0 ICorTp=0 IEmpDi=  4
 NAtoms=   69 NActive=   69 NUniq=   69 SFac= 1.00D+00 NAtFMM=   60 NAOKFM=T Big=T
 Integral buffers will be    131072 words long.
 Raffenetti 2 integral format.
 Two-electron integral symmetry is turned off.
 Force inversion solution in PCM.
 ------------------------------------------------------------------------------
 Polarizable Continuum Model (PCM)
 =================================
 Model                : PCM.
 Atomic radii         : SMD-Coulomb.
 Polarization charges : Total charges.
 Charge compensation  : None.
 Solution method      : Matrix inversion.
 Cavity type          : VdW (van der Waals Surface) (Alpha=1.000).
 Cavity algorithm     : GePol (No added spheres)
                        Default sphere list used, NSphG=   69.
                        Lebedev-Laikov grids with approx.  5.0 points / Ang**2.
                        Smoothing algorithm: York/Karplus (Gamma=1.0000).
                        Polarization charges: spherical gaussians, with
                                              point-specific exponents (IZeta= 3).
                        Self-potential: point-specific (ISelfS= 7).
                        Self-field    : sphere-specific E.n sum rule (ISelfD= 2).
 1st derivatives      : Analytical E(r).r(x)/FMM algorithm (CHGder, D1EAlg=3).
                        Cavity 1st derivative terms included.
 2nd derivatives      : Analytical E(r).r(xy)/FMM algorithm (CHGder, D2EAlg=3).
                        Cavity 2nd derivative terms included.
 Solvent              : DiChloroEthane, Eps=  10.125000 Eps(inf)=   2.087447
 ------------------------------------------------------------------------------
 GePol: Number of generator spheres                  =      69
 GePol: Total number of spheres                      =      69
 GePol: Number of exposed spheres                    =      68 ( 98.55%)
 GePol: Number of points                             =    4969
 GePol: Average weight of points                     =       0.13
 GePol: Minimum weight of points                     =   0.12D-10
 GePol: Maximum weight of points                     =    0.21501
 GePol: Number of points with low weight             =     284
 GePol: Fraction of low-weight points (<1% of avg)   =       5.72%
 GePol: Cavity surface area                          =    640.345 Ang**2
 GePol: Cavity volume                                =    778.623 Ang**3
 ------------------------------------------------------------------------------
 Atomic radii for non-electrostatic terms: SMD-CDS.
 ------------------------------------------------------------------------------
 PCM non-electrostatic energy =         0.0055040402 Hartrees.
 Nuclear repulsion after PCM non-electrostatic terms =    11732.5570679708 Hartrees.
 Leave Link  301 at Fri May  2 09:19:54 2025, MaxMem= 12348030976 cpu:               6.1 elap:               0.3
 (Enter /sysapps/ubuntu-applications/gaussian-new/avx/g16/l302.exe)
 NPDir=0 NMtPBC=     1 NCelOv=     1 NCel=       1 NClECP=     1 NCelD=      1
         NCelK=      1 NCelE2=     1 NClLst=     1 CellRange=     0.0.
 One-electron integrals computed using PRISM.
   1 Symmetry operations used in ECPInt.
 ECPInt:  NShTT=   77815 NPrTT=  297642 LenC2=   59658 LenP2D=  137997.
 LDataN:  DoStor=T MaxTD1= 9 Len=  602
 NBasis=   916 RedAO= T EigKep=  2.87D-04  NBF=   916
 NBsUse=   916 1.00D-06 EigRej= -1.00D+00 NBFU=   916
 Precomputing XC quadrature grid using
 IXCGrd= 4 IRadAn=           5 IRanWt=          -1 IRanGd=           0 AccXCQ= 0.00D+00.
 Defaulting to unpruned grid for atomic number  71.
 Generated NRdTot=       0 NPtTot=           0 NUsed=           0 NTot=          32
 NSgBfM=   940   931   940   940   940 MxSgAt=    69 MxSgA2=    69.
 Leave Link  302 at Fri May  2 09:19:56 2025, MaxMem= 12348030976 cpu:              53.9 elap:               2.3
 (Enter /sysapps/ubuntu-applications/gaussian-new/avx/g16/l303.exe)
 DipDrv:  MaxL=1.
 Leave Link  303 at Fri May  2 09:19:56 2025, MaxMem= 12348030976 cpu:               6.2 elap:               0.3
 (Enter /sysapps/ubuntu-applications/gaussian-new/avx/g16/l401.exe)
 ExpMin= 2.91D-02 ExpMax= 9.52D+04 ExpMxC= 1.55D+04 IAcc=3 IRadAn=         5 AccDes= 0.00D+00
 Harris functional with IExCor= 1009 and IRadAn=       5 diagonalized for initial guess.
 HarFok:  IExCor= 1009 AccDes= 0.00D+00 IRadAn=         5 IDoV= 1 UseB2=F ITyADJ=14
 ICtDFT=  3500011 ScaDFX=  1.000000  1.000000  1.000000  1.000000
 Defaulting to unpruned grid for atomic number  71.
 FoFCou: FMM=F IPFlag=           0 FMFlag=      100000 FMFlg1=        2001
         NFxFlg=           0 DoJE=T BraDBF=F KetDBF=T FulRan=T
         wScrn=  0.000000 ICntrl=       500 IOpCl=  0 I1Cent=   200000004 NGrid=           0
         NMat0=    1 NMatS0=      1 NMatT0=    0 NMatD0=    1 NMtDS0=    0 NMtDT0=    0
 Symmetry not used in FoFCou.
 Harris En= -5446.92112578790    
 JPrj=0 DoOrth=F DoCkMO=F.
 Initial guess <Sx>= 0.0000 <Sy>= 0.0000 <Sz>= 0.0000 <S**2>=-0.0000 S=-0.0000
 Leave Link  401 at Fri May  2 09:20:01 2025, MaxMem= 12348030976 cpu:             124.5 elap:               5.2
 (Enter /sysapps/ubuntu-applications/gaussian-new/avx/g16/l502.exe)
 Two-electron integral symmetry not used.
 UHF open shell SCF:
 Using DIIS extrapolation, IDIIS=  1040.
 NGot= 12348030976 LenX= 12346034798 LenY= 12345051726
 Requested convergence on RMS density matrix=1.00D-08 within 500 cycles.
 Requested convergence on MAX density matrix=1.00D-06.
 Requested convergence on             energy=1.00D-06.
 No special actions if energy rises.
 Fock matrices will be formed incrementally for  20 cycles.

 Cycle   1  Pass 1  IDiag  1:
 FoFJK:  IHMeth= 1 ICntrl=       0 DoSepK=F KAlg= 0 I1Cent=           0 FoldK=F
 IRaf= 850000000 NMat=       1 IRICut=       1 DoRegI=T DoRafI=F ISym2E= 0 IDoP0=0 IntGTp=1.
 FoFCou: FMM=T IPFlag=           0 FMFlag=      100000 FMFlg1=        2001
         NFxFlg=           0 DoJE=F BraDBF=F KetDBF=F FulRan=T
         wScrn=  0.000000 ICntrl=         0 IOpCl=  1 I1Cent=           0 NGrid=           0
         NMat0=    1 NMatS0=      1 NMatT0=    0 NMatD0=    1 NMtDS0=    0 NMtDT0=    0
 Symmetry not used in FoFCou.
 FMM levels:  10  Number of levels for PrismC:   9
 Defaulting to unpruned grid for atomic number  71.
 Defaulting to unpruned grid for atomic number  71.
 Defaulting to unpruned grid for atomic number  71.
 Defaulting to unpruned grid for atomic number  71.
 Defaulting to unpruned grid for atomic number  71.
 Defaulting to unpruned grid for atomic number  71.
 Defaulting to unpruned grid for atomic number  71.
 Defaulting to unpruned grid for atomic number  71.
 Defaulting to unpruned grid for atomic number  71.
 Defaulting to unpruned grid for atomic number  71.
 Defaulting to unpruned grid for atomic number  71.
 Defaulting to unpruned grid for atomic number  71.
 Defaulting to unpruned grid for atomic number  71.
 Defaulting to unpruned grid for atomic number  71.
 Defaulting to unpruned grid for atomic number  71.
 Defaulting to unpruned grid for atomic number  71.
 Defaulting to unpruned grid for atomic number  71.
 Defaulting to unpruned grid for atomic number  71.
 Defaulting to unpruned grid for atomic number  71.
 Defaulting to unpruned grid for atomic number  71.
 Defaulting to unpruned grid for atomic number  71.
 Defaulting to unpruned grid for atomic number  71.
 Defaulting to unpruned grid for atomic number  71.
 Defaulting to unpruned grid for atomic number  71.
 Inv3:  Mode=1 IEnd=    74072883.
 Iteration    1 A*A^-1 deviation from unit magnitude is 5.55D-15 for   4963.
 Iteration    1 A*A^-1 deviation from orthogonality  is 4.52D-15 for   4963   3811.
 Iteration    1 A^-1*A deviation from unit magnitude is 5.55D-15 for   4963.
 Iteration    1 A^-1*A deviation from orthogonality  is 6.27D-15 for   4960   3664.
 E= -5441.22720065777    
 DIIS: error= 2.34D-01 at cycle   1 NSaved=   1.
 NSaved= 1 IEnMin= 1 EnMin= -5441.22720065777     IErMin= 1 ErrMin= 2.34D-01
 ErrMax= 2.34D-01  0.00D+00 EMaxC= 1.00D-01 BMatC= 1.56D+02 BMatP= 1.56D+02
 IDIUse=3 WtCom= 0.00D+00 WtEn= 1.00D+00
 Coeff-Com:  0.100D+01
 Coeff-En:   0.100D+01
 Coeff:      0.100D+01
 Gap=     0.200 Goal=   None    Shift=    0.000
 Gap=     0.200 Goal=   None    Shift=    0.000
 GapD=    0.200 DampG=1.000 DampE=0.125 DampFc=0.1250 IDamp=-1.
 Damping current iteration by 1.25D-01
 RMSDP=9.33D-03 MaxDP=1.47D+00              OVMax= 9.77D-01

 Cycle   2  Pass 1  IDiag  1:
 RMSU=  1.16D-03    CP:  9.93D-01
 E= -5441.97607935984     Delta-E=       -0.748878702063 Rises=F Damp=T
 DIIS: error= 9.85D-02 at cycle   2 NSaved=   2.
 NSaved= 2 IEnMin= 2 EnMin= -5441.97607935984     IErMin= 2 ErrMin= 9.85D-02
 ErrMax= 9.85D-02  0.00D+00 EMaxC= 1.00D-01 BMatC= 3.24D+01 BMatP= 1.56D+02
 IDIUse=3 WtCom= 1.50D-02 WtEn= 9.85D-01
 Coeff-Com: -0.620D+00 0.162D+01
 Coeff-En:   0.370D+00 0.630D+00
 Coeff:      0.355D+00 0.645D+00
 Gap=    -0.024 Goal=   None    Shift=    0.000
 Gap=    -0.024 Goal=   None    Shift=    0.000
 RMSDP=3.06D-03 MaxDP=6.22D-01 DE=-7.49D-01 OVMax= 8.91D-01

 Cycle   3  Pass 1  IDiag  1:
 RMSU=  3.02D-03    CP:  9.68D-01  1.28D+00
 E= -5440.06855799880     Delta-E=        1.907521361034 Rises=F Damp=F
 DIIS: error= 2.62D-01 at cycle   3 NSaved=   3.
 NSaved= 3 IEnMin= 2 EnMin= -5441.97607935984     IErMin= 2 ErrMin= 9.85D-02
 ErrMax= 2.62D-01  0.00D+00 EMaxC= 1.00D-01 BMatC= 1.78D+02 BMatP= 3.24D+01
 IDIUse=2 WtCom= 0.00D+00 WtEn= 1.00D+00
 EnCoef did   100 forward-backward iterations
 Coeff-En:   0.529D+00 0.202D-01 0.451D+00
 Coeff:      0.529D+00 0.202D-01 0.451D+00
 Gap=     0.512 Goal=   None    Shift=    0.000
 Gap=     0.512 Goal=   None    Shift=    0.000
 RMSDP=2.27D-03 MaxDP=3.22D-01 DE= 1.91D+00 OVMax= 1.94D-01

 Cycle   4  Pass 1  IDiag  1:
 RMSU=  1.27D-03    CP:  9.75D-01  7.01D-01  4.18D-01
 E= -5445.96202903992     Delta-E=       -5.893471041121 Rises=F Damp=F
 DIIS: error= 3.38D-02 at cycle   4 NSaved=   4.
 NSaved= 4 IEnMin= 4 EnMin= -5445.96202903992     IErMin= 4 ErrMin= 3.38D-02
 ErrMax= 3.38D-02  0.00D+00 EMaxC= 1.00D-01 BMatC= 3.95D+00 BMatP= 3.24D+01
 IDIUse=3 WtCom= 6.62D-01 WtEn= 3.38D-01
 Coeff-Com:  0.306D+00-0.174D+00 0.121D+00 0.747D+00
 Coeff-En:   0.000D+00 0.000D+00 0.000D+00 0.100D+01
 Coeff:      0.203D+00-0.115D+00 0.801D-01 0.833D+00
 Gap=     0.408 Goal=   None    Shift=    0.000
 Gap=     0.408 Goal=   None    Shift=    0.000
 RMSDP=9.15D-04 MaxDP=7.57D-02 DE=-5.89D+00 OVMax= 9.78D-02

 Cycle   5  Pass 1  IDiag  1:
 RMSU=  5.19D-04    CP:  9.80D-01  6.72D-01  4.99D-01  4.41D-01
 E= -5446.05124392357     Delta-E=       -0.089214883645 Rises=F Damp=F
 DIIS: error= 2.05D-02 at cycle   5 NSaved=   5.
 NSaved= 5 IEnMin= 5 EnMin= -5446.05124392357     IErMin= 5 ErrMin= 2.05D-02
 ErrMax= 2.05D-02  0.00D+00 EMaxC= 1.00D-01 BMatC= 1.71D+00 BMatP= 3.95D+00
 IDIUse=3 WtCom= 7.95D-01 WtEn= 2.05D-01
 Coeff-Com:  0.986D-01-0.116D+00 0.709D-02 0.550D+00 0.460D+00
 Coeff-En:   0.000D+00 0.000D+00 0.000D+00 0.400D+00 0.600D+00
 Coeff:      0.784D-01-0.920D-01 0.563D-02 0.519D+00 0.489D+00
 Gap=     0.172 Goal=   None    Shift=    0.000
 Gap=     0.172 Goal=   None    Shift=    0.000
 RMSDP=4.65D-04 MaxDP=4.98D-02 DE=-8.92D-02 OVMax= 4.64D-02

 Cycle   6  Pass 1  IDiag  1:
 RMSU=  2.43D-04    CP:  9.78D-01  6.32D-01  4.56D-01  6.19D-01  4.35D-01
 E= -5446.19275596308     Delta-E=       -0.141512039510 Rises=F Damp=F
 DIIS: error= 7.58D-03 at cycle   6 NSaved=   6.
 NSaved= 6 IEnMin= 6 EnMin= -5446.19275596308     IErMin= 6 ErrMin= 7.58D-03
 ErrMax= 7.58D-03  0.00D+00 EMaxC= 1.00D-01 BMatC= 1.73D-01 BMatP= 1.71D+00
 IDIUse=3 WtCom= 9.24D-01 WtEn= 7.58D-02
 Coeff-Com:  0.311D-01-0.639D-01-0.116D-01 0.133D+00 0.252D+00 0.659D+00
 Coeff-En:   0.000D+00 0.000D+00 0.000D+00 0.000D+00 0.566D-01 0.943D+00
 Coeff:      0.287D-01-0.591D-01-0.107D-01 0.123D+00 0.237D+00 0.681D+00
 Gap=     0.169 Goal=   None    Shift=    0.000
 Gap=     0.169 Goal=   None    Shift=    0.000
 RMSDP=1.30D-04 MaxDP=2.21D-02 DE=-1.42D-01 OVMax= 1.56D-02

 Cycle   7  Pass 1  IDiag  1:
 RMSU=  6.97D-05    CP:  9.78D-01  6.61D-01  4.68D-01  6.23D-01  5.01D-01
                    CP:  6.20D-01
 E= -5446.20149074056     Delta-E=       -0.008734777481 Rises=F Damp=F
 DIIS: error= 4.35D-03 at cycle   7 NSaved=   7.
 NSaved= 7 IEnMin= 7 EnMin= -5446.20149074056     IErMin= 7 ErrMin= 4.35D-03
 ErrMax= 4.35D-03  0.00D+00 EMaxC= 1.00D-01 BMatC= 5.22D-02 BMatP= 1.73D-01
 IDIUse=3 WtCom= 9.56D-01 WtEn= 4.35D-02
 Coeff-Com:  0.240D-01-0.509D-01-0.102D-01 0.177D-01 0.967D-01 0.386D+00
 Coeff-Com:  0.536D+00
 Coeff-En:   0.000D+00 0.000D+00 0.000D+00 0.000D+00 0.000D+00 0.198D-01
 Coeff-En:   0.980D+00
 Coeff:      0.230D-01-0.487D-01-0.971D-02 0.169D-01 0.925D-01 0.370D+00
 Coeff:      0.556D+00
 Gap=     0.169 Goal=   None    Shift=    0.000
 Gap=     0.169 Goal=   None    Shift=    0.000
 RMSDP=6.81D-05 MaxDP=1.66D-02 DE=-8.73D-03 OVMax= 9.17D-03

 Cycle   8  Pass 1  IDiag  1:
 RMSU=  3.89D-05    CP:  9.78D-01  6.45D-01  4.64D-01  6.16D-01  5.08D-01
                    CP:  7.29D-01  3.71D-01
 E= -5446.20333317726     Delta-E=       -0.001842436697 Rises=F Damp=F
 DIIS: error= 4.15D-03 at cycle   8 NSaved=   8.
 NSaved= 8 IEnMin= 8 EnMin= -5446.20333317726     IErMin= 8 ErrMin= 4.15D-03
 ErrMax= 4.15D-03  0.00D+00 EMaxC= 1.00D-01 BMatC= 4.32D-02 BMatP= 5.22D-02
 IDIUse=3 WtCom= 9.58D-01 WtEn= 4.15D-02
 Coeff-Com:  0.218D-01-0.407D-01-0.673D-02-0.449D-01-0.181D-01 0.422D-01
 Coeff-Com:  0.417D+00 0.629D+00
 Coeff-En:   0.000D+00 0.000D+00 0.000D+00 0.000D+00 0.000D+00 0.000D+00
 Coeff-En:   0.734D-01 0.927D+00
 Coeff:      0.209D-01-0.390D-01-0.645D-02-0.430D-01-0.173D-01 0.405D-01
 Coeff:      0.403D+00 0.642D+00
 Gap=     0.169 Goal=   None    Shift=    0.000
 Gap=     0.169 Goal=   None    Shift=    0.000
 RMSDP=2.65D-05 MaxDP=5.58D-03 DE=-1.84D-03 OVMax= 3.80D-03

 Cycle   9  Pass 1  IDiag  1:
 RMSU=  1.08D-05    CP:  9.78D-01  6.47D-01  4.65D-01  6.12D-01  5.09D-01
                    CP:  7.26D-01  6.01D-01  5.69D-01
 E= -5446.20433073917     Delta-E=       -0.000997561914 Rises=F Damp=F
 DIIS: error= 3.43D-03 at cycle   9 NSaved=   9.
 NSaved= 9 IEnMin= 9 EnMin= -5446.20433073917     IErMin= 9 ErrMin= 3.43D-03
 ErrMax= 3.43D-03  0.00D+00 EMaxC= 1.00D-01 BMatC= 2.83D-02 BMatP= 4.32D-02
 IDIUse=3 WtCom= 9.66D-01 WtEn= 3.43D-02
 Coeff-Com:  0.176D-01-0.287D-01-0.343D-02-0.418D-01-0.531D-01-0.168D+00
 Coeff-Com: -0.121D+00 0.114D+00 0.128D+01
 Coeff-En:   0.000D+00 0.000D+00 0.000D+00 0.000D+00 0.000D+00 0.000D+00
 Coeff-En:   0.000D+00 0.000D+00 0.100D+01
 Coeff:      0.170D-01-0.277D-01-0.331D-02-0.403D-01-0.513D-01-0.162D+00
 Coeff:     -0.117D+00 0.110D+00 0.127D+01
 Gap=     0.169 Goal=   None    Shift=    0.000
 Gap=     0.169 Goal=   None    Shift=    0.000
 RMSDP=1.64D-05 MaxDP=2.36D-03 DE=-9.98D-04 OVMax= 1.85D-03

 Cycle  10  Pass 1  IDiag  1:
 RMSU=  9.05D-06    CP:  9.78D-01  6.46D-01  4.66D-01  6.04D-01  5.06D-01
                    CP:  7.40D-01  6.33D-01  7.36D-01  6.92D-01
 E= -5446.20502179906     Delta-E=       -0.000691059890 Rises=F Damp=F
 DIIS: error= 2.60D-03 at cycle  10 NSaved=  10.
 NSaved=10 IEnMin=10 EnMin= -5446.20502179906     IErMin=10 ErrMin= 2.60D-03
 ErrMax= 2.60D-03  0.00D+00 EMaxC= 1.00D-01 BMatC= 1.63D-02 BMatP= 2.83D-02
 IDIUse=3 WtCom= 9.74D-01 WtEn= 2.60D-02
 Coeff-Com:  0.809D-02-0.102D-01-0.616D-03-0.857D-02-0.347D-01-0.199D+00
 Coeff-Com: -0.489D+00-0.588D+00 0.101D+01 0.132D+01
 Coeff-En:   0.000D+00 0.000D+00 0.000D+00 0.000D+00 0.000D+00 0.000D+00
 Coeff-En:   0.000D+00 0.000D+00 0.000D+00 0.100D+01
 Coeff:      0.788D-02-0.997D-02-0.600D-03-0.835D-02-0.338D-01-0.194D+00
 Coeff:     -0.476D+00-0.572D+00 0.980D+00 0.131D+01
 Gap=     0.170 Goal=   None    Shift=    0.000
 Gap=     0.170 Goal=   None    Shift=    0.000
 RMSDP=2.31D-05 MaxDP=4.78D-03 DE=-6.91D-04 OVMax= 1.98D-03

 Cycle  11  Pass 1  IDiag  1:
 RMSU=  1.05D-05    CP:  9.78D-01  6.43D-01  4.67D-01  5.91D-01  5.05D-01
                    CP:  7.59D-01  6.58D-01  8.88D-01  1.43D+00  1.19D+00
 E= -5446.20580589857     Delta-E=       -0.000784099511 Rises=F Damp=F
 DIIS: error= 9.49D-04 at cycle  11 NSaved=  11.
 NSaved=11 IEnMin=11 EnMin= -5446.20580589857     IErMin=11 ErrMin= 9.49D-04
 ErrMax= 9.49D-04  0.00D+00 EMaxC= 1.00D-01 BMatC= 2.22D-03 BMatP= 1.63D-02
 IDIUse=3 WtCom= 9.91D-01 WtEn= 9.49D-03
 Coeff-Com:  0.261D-02-0.264D-02-0.180D-03 0.456D-02-0.830D-02-0.804D-01
 Coeff-Com: -0.268D+00-0.417D+00 0.254D+00 0.777D+00 0.739D+00
 Coeff-En:   0.000D+00 0.000D+00 0.000D+00 0.000D+00 0.000D+00 0.000D+00
 Coeff-En:   0.000D+00 0.000D+00 0.000D+00 0.000D+00 0.100D+01
 Coeff:      0.259D-02-0.261D-02-0.179D-03 0.452D-02-0.822D-02-0.797D-01
 Coeff:     -0.266D+00-0.413D+00 0.252D+00 0.769D+00 0.741D+00
 Gap=     0.170 Goal=   None    Shift=    0.000
 Gap=     0.170 Goal=   None    Shift=    0.000
 RMSDP=8.88D-06 MaxDP=2.06D-03 DE=-7.84D-04 OVMax= 7.16D-04

 Cycle  12  Pass 1  IDiag  1:
 RMSU=  5.21D-06    CP:  9.78D-01  6.42D-01  4.68D-01  5.87D-01  5.03D-01
                    CP:  7.61D-01  6.71D-01  8.99D-01  1.69D+00  1.62D+00
                    CP:  9.17D-01
 E= -5446.20591714469     Delta-E=       -0.000111246114 Rises=F Damp=F
 DIIS: error= 2.78D-04 at cycle  12 NSaved=  12.
 NSaved=12 IEnMin=12 EnMin= -5446.20591714469     IErMin=12 ErrMin= 2.78D-04
 ErrMax= 2.78D-04  0.00D+00 EMaxC= 1.00D-01 BMatC= 2.04D-04 BMatP= 2.22D-03
 IDIUse=3 WtCom= 9.97D-01 WtEn= 2.78D-03
 Coeff-Com:  0.428D-03-0.439D-03-0.187D-03 0.399D-02 0.247D-02-0.263D-02
 Coeff-Com: -0.389D-01-0.102D+00-0.643D-01 0.111D+00 0.366D+00 0.725D+00
 Coeff-En:   0.000D+00 0.000D+00 0.000D+00 0.000D+00 0.000D+00 0.000D+00
 Coeff-En:   0.000D+00 0.000D+00 0.000D+00 0.000D+00 0.000D+00 0.100D+01
 Coeff:      0.426D-03-0.438D-03-0.187D-03 0.398D-02 0.247D-02-0.262D-02
 Coeff:     -0.388D-01-0.102D+00-0.641D-01 0.111D+00 0.365D+00 0.725D+00
 Gap=     0.170 Goal=   None    Shift=    0.000
 Gap=     0.170 Goal=   None    Shift=    0.000
 RMSDP=3.61D-06 MaxDP=6.05D-04 DE=-1.11D-04 OVMax= 5.17D-04

 Cycle  13  Pass 1  IDiag  1:
 RMSU=  2.14D-06    CP:  9.78D-01  6.41D-01  4.68D-01  5.86D-01  5.02D-01
                    CP:  7.62D-01  6.74D-01  8.92D-01  1.73D+00  1.70D+00
                    CP:  1.12D+00  9.82D-01
 E= -5446.20592892612     Delta-E=       -0.000011781432 Rises=F Damp=F
 DIIS: error= 4.46D-05 at cycle  13 NSaved=  13.
 NSaved=13 IEnMin=13 EnMin= -5446.20592892612     IErMin=13 ErrMin= 4.46D-05
 ErrMax= 4.46D-05  0.00D+00 EMaxC= 1.00D-01 BMatC= 7.92D-06 BMatP= 2.04D-04
 IDIUse=1 WtCom= 1.00D+00 WtEn= 0.00D+00
 Coeff-Com: -0.708D-04 0.558D-04-0.789D-04 0.129D-02 0.234D-02 0.979D-02
 Coeff-Com:  0.193D-01 0.811D-02-0.668D-01-0.601D-01 0.711D-01 0.367D+00
 Coeff-Com:  0.649D+00
 Coeff:     -0.708D-04 0.558D-04-0.789D-04 0.129D-02 0.234D-02 0.979D-02
 Coeff:      0.193D-01 0.811D-02-0.668D-01-0.601D-01 0.711D-01 0.367D+00
 Coeff:      0.649D+00
 Gap=     0.170 Goal=   None    Shift=    0.000
 Gap=     0.170 Goal=   None    Shift=    0.000
 RMSDP=1.31D-06 MaxDP=1.28D-04 DE=-1.18D-05 OVMax= 2.53D-04

 Cycle  14  Pass 1  IDiag  1:
 RMSU=  8.35D-07    CP:  9.78D-01  6.41D-01  4.68D-01  5.86D-01  5.02D-01
                    CP:  7.62D-01  6.72D-01  8.93D-01  1.71D+00  1.71D+00
                    CP:  1.16D+00  1.10D+00  8.25D-01
 E= -5446.20592975683     Delta-E=       -0.000000830716 Rises=F Damp=F
 DIIS: error= 8.27D-06 at cycle  14 NSaved=  14.
 NSaved=14 IEnMin=14 EnMin= -5446.20592975683     IErMin=14 ErrMin= 8.27D-06
 ErrMax= 8.27D-06  0.00D+00 EMaxC= 1.00D-01 BMatC= 4.34D-07 BMatP= 7.92D-06
 IDIUse=1 WtCom= 1.00D+00 WtEn= 0.00D+00
 Coeff-Com: -0.756D-04 0.660D-04-0.953D-05 0.915D-04 0.765D-03 0.465D-02
 Coeff-Com:  0.131D-01 0.150D-01-0.208D-01-0.386D-01-0.100D-01 0.778D-01
 Coeff-Com:  0.287D+00 0.671D+00
 Coeff:     -0.756D-04 0.660D-04-0.953D-05 0.915D-04 0.765D-03 0.465D-02
 Coeff:      0.131D-01 0.150D-01-0.208D-01-0.386D-01-0.100D-01 0.778D-01
 Coeff:      0.287D+00 0.671D+00
 Gap=     0.170 Goal=   None    Shift=    0.000
 Gap=     0.170 Goal=   None    Shift=    0.000
 RMSDP=4.53D-07 MaxDP=3.97D-05 DE=-8.31D-07 OVMax= 1.22D-04

 Cycle  15  Pass 1  IDiag  1:
 RMSU=  2.77D-07    CP:  9.78D-01  6.41D-01  4.68D-01  5.86D-01  5.02D-01
                    CP:  7.61D-01  6.71D-01  8.90D-01  1.71D+00  1.70D+00
                    CP:  1.17D+00  1.13D+00  9.38D-01  9.27D-01
 E= -5446.20592983423     Delta-E=       -0.000000077396 Rises=F Damp=F
 DIIS: error= 8.21D-06 at cycle  15 NSaved=  15.
 NSaved=15 IEnMin=15 EnMin= -5446.20592983423     IErMin=15 ErrMin= 8.21D-06
 ErrMax= 8.21D-06  0.00D+00 EMaxC= 1.00D-01 BMatC= 2.09D-07 BMatP= 4.34D-07
 IDIUse=1 WtCom= 1.00D+00 WtEn= 0.00D+00
 Coeff-Com: -0.251D-04 0.203D-04 0.115D-04-0.188D-03-0.498D-04 0.483D-03
 Coeff-Com:  0.265D-02 0.518D-02 0.257D-02-0.660D-02-0.151D-01-0.249D-01
 Coeff-Com:  0.175D-01 0.274D+00 0.745D+00
 Coeff:     -0.251D-04 0.203D-04 0.115D-04-0.188D-03-0.498D-04 0.483D-03
 Coeff:      0.265D-02 0.518D-02 0.257D-02-0.660D-02-0.151D-01-0.249D-01
 Coeff:      0.175D-01 0.274D+00 0.745D+00
 Gap=     0.170 Goal=   None    Shift=    0.000
 Gap=     0.170 Goal=   None    Shift=    0.000
 RMSDP=2.18D-07 MaxDP=1.47D-05 DE=-7.74D-08 OVMax= 6.89D-05

 Cycle  16  Pass 1  IDiag  1:
 RMSU=  1.20D-07    CP:  9.78D-01  6.41D-01  4.68D-01  5.86D-01  5.02D-01
                    CP:  7.61D-01  6.71D-01  8.88D-01  1.70D+00  1.70D+00
                    CP:  1.17D+00  1.15D+00  9.75D-01  1.06D+00  9.58D-01
 E= -5446.20592985355     Delta-E=       -0.000000019318 Rises=F Damp=F
 DIIS: error= 2.60D-06 at cycle  16 NSaved=  16.
 NSaved=16 IEnMin=16 EnMin= -5446.20592985355     IErMin=16 ErrMin= 2.60D-06
 ErrMax= 2.60D-06  0.00D+00 EMaxC= 1.00D-01 BMatC= 2.56D-08 BMatP= 2.09D-07
 IDIUse=1 WtCom= 1.00D+00 WtEn= 0.00D+00
 Coeff-Com: -0.387D-05 0.284D-05 0.850D-05-0.116D-03-0.139D-03-0.400D-03
 Coeff-Com: -0.394D-03 0.688D-03 0.443D-02 0.205D-02-0.647D-02-0.241D-01
 Coeff-Com: -0.346D-01 0.378D-01 0.394D+00 0.628D+00
 Coeff:     -0.387D-05 0.284D-05 0.850D-05-0.116D-03-0.139D-03-0.400D-03
 Coeff:     -0.394D-03 0.688D-03 0.443D-02 0.205D-02-0.647D-02-0.241D-01
 Coeff:     -0.346D-01 0.378D-01 0.394D+00 0.628D+00
 Gap=     0.170 Goal=   None    Shift=    0.000
 Gap=     0.170 Goal=   None    Shift=    0.000
 RMSDP=8.30D-08 MaxDP=5.81D-06 DE=-1.93D-08 OVMax= 2.30D-05

 Cycle  17  Pass 1  IDiag  1:
 RMSU=  4.07D-08    CP:  9.78D-01  6.41D-01  4.68D-01  5.86D-01  5.02D-01
                    CP:  7.61D-01  6.71D-01  8.88D-01  1.70D+00  1.70D+00
                    CP:  1.17D+00  1.15D+00  9.88D-01  1.09D+00  1.10D+00
                    CP:  8.54D-01
 E= -5446.20592985655     Delta-E=       -0.000000002998 Rises=F Damp=F
 DIIS: error= 3.66D-07 at cycle  17 NSaved=  17.
 NSaved=17 IEnMin=17 EnMin= -5446.20592985655     IErMin=17 ErrMin= 3.66D-07
 ErrMax= 3.66D-07  0.00D+00 EMaxC= 1.00D-01 BMatC= 9.37D-10 BMatP= 2.56D-08
 IDIUse=1 WtCom= 1.00D+00 WtEn= 0.00D+00
 Coeff-Com:  0.193D-05-0.219D-05 0.173D-05-0.224D-04-0.498D-04-0.224D-03
 Coeff-Com: -0.485D-03-0.403D-03 0.140D-02 0.177D-02-0.590D-03-0.603D-02
 Coeff-Com: -0.163D-01-0.201D-01 0.632D-01 0.243D+00 0.735D+00
 Coeff:      0.193D-05-0.219D-05 0.173D-05-0.224D-04-0.498D-04-0.224D-03
 Coeff:     -0.485D-03-0.403D-03 0.140D-02 0.177D-02-0.590D-03-0.603D-02
 Coeff:     -0.163D-01-0.201D-01 0.632D-01 0.243D+00 0.735D+00
 Gap=     0.170 Goal=   None    Shift=    0.000
 Gap=     0.170 Goal=   None    Shift=    0.000
 RMSDP=2.98D-08 MaxDP=2.00D-06 DE=-3.00D-09 OVMax= 8.58D-06

 Cycle  18  Pass 1  IDiag  1:
 RMSU=  1.60D-08    CP:  9.78D-01  6.41D-01  4.68D-01  5.86D-01  5.02D-01
                    CP:  7.61D-01  6.71D-01  8.88D-01  1.70D+00  1.70D+00
                    CP:  1.17D+00  1.15D+00  9.92D-01  1.11D+00  1.14D+00
                    CP:  9.66D-01  9.56D-01
 E= -5446.20592985705     Delta-E=       -0.000000000507 Rises=F Damp=F
 DIIS: error= 2.84D-07 at cycle  18 NSaved=  18.
 NSaved=18 IEnMin=18 EnMin= -5446.20592985705     IErMin=18 ErrMin= 2.84D-07
 ErrMax= 2.84D-07  0.00D+00 EMaxC= 1.00D-01 BMatC= 3.67D-10 BMatP= 9.37D-10
 IDIUse=1 WtCom= 1.00D+00 WtEn= 0.00D+00
 Coeff-Com:  0.163D-05-0.164D-05-0.471D-06 0.572D-05-0.462D-05-0.575D-04
 Coeff-Com: -0.191D-03-0.321D-03 0.316D-04 0.634D-03 0.635D-03 0.473D-03
 Coeff-Com: -0.339D-02-0.156D-01-0.243D-01 0.307D-01 0.382D+00 0.630D+00
 Coeff:      0.163D-05-0.164D-05-0.471D-06 0.572D-05-0.462D-05-0.575D-04
 Coeff:     -0.191D-03-0.321D-03 0.316D-04 0.634D-03 0.635D-03 0.473D-03
 Coeff:     -0.339D-02-0.156D-01-0.243D-01 0.307D-01 0.382D+00 0.630D+00
 Gap=     0.170 Goal=   None    Shift=    0.000
 Gap=     0.170 Goal=   None    Shift=    0.000
 RMSDP=1.12D-08 MaxDP=9.19D-07 DE=-5.07D-10 OVMax= 3.39D-06

 Cycle  19  Pass 1  IDiag  1:
 RMSU=  6.14D-09    CP:  9.78D-01  6.41D-01  4.68D-01  5.86D-01  5.02D-01
                    CP:  7.61D-01  6.71D-01  8.88D-01  1.70D+00  1.70D+00
                    CP:  1.17D+00  1.15D+00  9.93D-01  1.11D+00  1.15D+00
                    CP:  1.00D+00  1.08D+00  8.25D-01
 E= -5446.20592985695     Delta-E=        0.000000000107 Rises=F Damp=F
 DIIS: error= 2.02D-07 at cycle  19 NSaved=  19.
 NSaved=19 IEnMin=18 EnMin= -5446.20592985705     IErMin=19 ErrMin= 2.02D-07
 ErrMax= 2.02D-07  0.00D+00 EMaxC= 1.00D-01 BMatC= 1.22D-10 BMatP= 3.67D-10
 IDIUse=1 WtCom= 1.00D+00 WtEn= 0.00D+00
 Coeff-Com:  0.449D-06-0.357D-06-0.501D-06 0.623D-05 0.602D-05 0.797D-05
 Coeff-Com: -0.138D-04-0.932D-04-0.224D-03 0.226D-04 0.375D-03 0.110D-02
 Coeff-Com:  0.842D-03-0.384D-02-0.201D-01-0.242D-01 0.575D-01 0.293D+00
 Coeff-Com:  0.696D+00
 Coeff:      0.449D-06-0.357D-06-0.501D-06 0.623D-05 0.602D-05 0.797D-05
 Coeff:     -0.138D-04-0.932D-04-0.224D-03 0.226D-04 0.375D-03 0.110D-02
 Coeff:      0.842D-03-0.384D-02-0.201D-01-0.242D-01 0.575D-01 0.293D+00
 Coeff:      0.696D+00
 Gap=     0.170 Goal=   None    Shift=    0.000
 Gap=     0.170 Goal=   None    Shift=    0.000
 RMSDP=4.65D-09 MaxDP=4.11D-07 DE= 1.07D-10 OVMax= 1.41D-06

 Error on total polarization charges =  0.03063
 SCF Done:  E(UMN15) =  -5446.20592986     A.U. after   19 cycles
            NFock= 19  Conv=0.47D-08     -V/T= 2.0909
 <Sx>= 0.0000 <Sy>= 0.0000 <Sz>= 0.0000 <S**2>=-0.0000 S=-0.0000
 <L.S>=  0.00000000000    
 KE= 4.992275685766D+03 PE=-3.644779309145D+04 EE= 1.427675440786D+04
 SMD-CDS (non-electrostatic) energy       (kcal/mol) =       3.45
 (included in total energy above)
 Annihilation of the first spin contaminant:
 S**2 before annihilation    -0.0000,   after    -0.0000
 Leave Link  502 at Fri May  2 09:34:00 2025, MaxMem= 12348030976 cpu:           19938.7 elap:             838.1
 (Enter /sysapps/ubuntu-applications/gaussian-new/avx/g16/l801.exe)
 DoSCS=F DFT=T ScalE2(SS,OS)=  1.000000  1.000000
 Range of M.O.s used for correlation:     1   916
 NBasis=   916 NAE=   230 NBE=   230 NFC=     0 NFV=     0
 NROrb=    916 NOA=   230 NOB=   230 NVA=   686 NVB=   686

 **** Warning!!: The largest alpha MO coefficient is  0.12937452D+02


 **** Warning!!: The largest beta MO coefficient is  0.12937452D+02

 Leave Link  801 at Fri May  2 09:34:00 2025, MaxMem= 12348030976 cpu:               2.2 elap:               0.1
 (Enter /sysapps/ubuntu-applications/gaussian-new/avx/g16/l1101.exe)
 Using compressed storage, NAtomX=    69.
 Will process     70 centers per pass.
   1 Symmetry operations used in ECPInt.
 ECPInt:  NShTT=   77815 NPrTT=  297642 LenC2=   59658 LenP2D=  137997.
 LDataN:  DoStor=T MaxTD1=10 Len=  848
 Number of processors reduced to  10 by ecpmxn.
 Leave Link 1101 at Fri May  2 09:34:12 2025, MaxMem= 12348030976 cpu:             197.4 elap:              11.8
 (Enter /sysapps/ubuntu-applications/gaussian-new/avx/g16/l1102.exe)
 Symmetrizing basis deriv contribution to polar:
 IMax=3 JMax=2 DiffMx= 0.00D+00
 Leave Link 1102 at Fri May  2 09:34:14 2025, MaxMem= 12348030976 cpu:               4.3 elap:               0.2
 (Enter /sysapps/ubuntu-applications/gaussian-new/avx/g16/l1110.exe)
 Forming Gx(P) for the SCF density, NAtomX=    69.
 Integral derivatives from FoFJK, PRISM(SPDF).
 Do as many integral derivatives as possible in FoFJK.
 G2DrvN: MDV=   12348024906.
 G2DrvN: will do    70 centers at a time, making    1 passes.
 Calling FoFCou, ICntrl=  3107 FMM=T I1Cent=   0 AccDes= 0.00D+00.
 FoFJK:  IHMeth= 1 ICntrl=    3107 DoSepK=F KAlg= 0 I1Cent=           0 FoldK=F
 IRaf=         0 NMat=       1 IRICut=       1 DoRegI=T DoRafI=F ISym2E= 0 IDoP0=0 IntGTp=1.
 FoFCou: FMM=T IPFlag=           0 FMFlag=      100000 FMFlg1=        2001
         NFxFlg=           0 DoJE=F BraDBF=F KetDBF=F FulRan=T
         wScrn=  0.000000 ICntrl=      3107 IOpCl=  1 I1Cent=           0 NGrid=           0
         NMat0=    1 NMatS0=      1 NMatT0=    0 NMatD0=    1 NMtDS0=    0 NMtDT0=    0
 Symmetry not used in FoFCou.
 FMM levels:  10  Number of levels for PrismC:   9
 Defaulting to unpruned grid for atomic number  71.
 Defaulting to unpruned grid for atomic number  71.
 Defaulting to unpruned grid for atomic number  71.
 Defaulting to unpruned grid for atomic number  71.
 Defaulting to unpruned grid for atomic number  71.
 Defaulting to unpruned grid for atomic number  71.
 Defaulting to unpruned grid for atomic number  71.
 Defaulting to unpruned grid for atomic number  71.
 Defaulting to unpruned grid for atomic number  71.
 Defaulting to unpruned grid for atomic number  71.
 Defaulting to unpruned grid for atomic number  71.
 Defaulting to unpruned grid for atomic number  71.
 Defaulting to unpruned grid for atomic number  71.
 Defaulting to unpruned grid for atomic number  71.
 Defaulting to unpruned grid for atomic number  71.
 Defaulting to unpruned grid for atomic number  71.
 Defaulting to unpruned grid for atomic number  71.
 Defaulting to unpruned grid for atomic number  71.
 Defaulting to unpruned grid for atomic number  71.
 Defaulting to unpruned grid for atomic number  71.
 Defaulting to unpruned grid for atomic number  71.
 Defaulting to unpruned grid for atomic number  71.
 Defaulting to unpruned grid for atomic number  71.
 Defaulting to unpruned grid for atomic number  71.
 NEqPCM:  Using equilibrium solvation (IEInf=0, Eps=  10.1250, EpsInf=   2.0874)
 G2PCM: DoFxE=T DoFxN=T DoGrad=T DoDP/DQ/DG/TGxP=FFFF NFrqRd=   0 IEInf=0 SqF1=F DoCFld=F IF1Alg=4.
 GePol: Maximum number of non-zero 1st derivatives   =     245
 End of G2Drv F.D. properties file   721 does not exist.
 End of G2Drv F.D. properties file   722 does not exist.
 End of G2Drv F.D. properties file   788 does not exist.
 Leave Link 1110 at Fri May  2 10:13:48 2025, MaxMem= 12348030976 cpu:           56865.4 elap:            2373.9
 (Enter /sysapps/ubuntu-applications/gaussian-new/avx/g16/l1002.exe)
 Minotr:  UHF open shell wavefunction.
          IDoAtm=11111111111111111111111111111111111111111111111111
          IDoAtm=1111111111111111111
 NEqPCM:  Using equilibrium solvation (IEInf=0, Eps=  10.1250, EpsInf=   2.0874)
          Direct CPHF calculation.
          Differentiating once with respect to nuclear coordinates.
          Requested convergence is 1.0D-08 RMS, and 1.0D-07 maximum.
          Secondary convergence is 1.0D-12 RMS, and 1.0D-12 maximum.
          NewPWx=T KeepS1=F KeepF1=F KeepIn=T MapXYZ=F SortEE=F KeepMc=T.
 Defaulting to unpruned grid for atomic number  71.
        21389 words used for storage of precomputed grid.
 Two-electron integral symmetry not used.
          MDV=   12348030976 using IRadAn=       1.
          Solving linear equations simultaneously, MaxMat=      72.
 FoF2E skips out because all densities are zero.
 CalDSu exits because no D1Ps are significant.
 FoFJK:  IHMeth= 1 ICntrl=       0 DoSepK=F KAlg= 0 I1Cent=           0 FoldK=F
 IRaf= 800000000 NMat=      72 IRICut=       1 DoRegI=T DoRafI=F ISym2E= 0 IDoP0=3 IntGTp=3.
 Defaulting to unpruned grid for atomic number  71.
 Defaulting to unpruned grid for atomic number  71.
 Defaulting to unpruned grid for atomic number  71.
 Defaulting to unpruned grid for atomic number  71.
 Defaulting to unpruned grid for atomic number  71.
 Defaulting to unpruned grid for atomic number  71.
 Defaulting to unpruned grid for atomic number  71.
 Defaulting to unpruned grid for atomic number  71.
 Defaulting to unpruned grid for atomic number  71.
 Defaulting to unpruned grid for atomic number  71.
 Defaulting to unpruned grid for atomic number  71.
 Defaulting to unpruned grid for atomic number  71.
 Defaulting to unpruned grid for atomic number  71.
 Defaulting to unpruned grid for atomic number  71.
 Defaulting to unpruned grid for atomic number  71.
 Defaulting to unpruned grid for atomic number  71.
 Defaulting to unpruned grid for atomic number  71.
 Defaulting to unpruned grid for atomic number  71.
 Defaulting to unpruned grid for atomic number  71.
 Defaulting to unpruned grid for atomic number  71.
 Defaulting to unpruned grid for atomic number  71.
 Defaulting to unpruned grid for atomic number  71.
 Defaulting to unpruned grid for atomic number  71.
 Defaulting to unpruned grid for atomic number  71.
          There are   210 degrees of freedom in the 1st order CPHF.  IDoFFX=6 NUNeed=     0.
    207 vectors produced by pass  0 Test12= 3.16D-13 1.00D-09 XBig12= 3.69D-01 1.77D-01.
 AX will form    72 AO Fock derivatives at one time.
    204 vectors produced by pass  1 Test12= 3.16D-13 1.00D-09 XBig12= 1.19D-01 4.51D-02.
    204 vectors produced by pass  2 Test12= 3.16D-13 1.00D-09 XBig12= 2.48D-03 4.52D-03.
    204 vectors produced by pass  3 Test12= 3.16D-13 1.00D-09 XBig12= 2.62D-05 3.59D-04.
    204 vectors produced by pass  4 Test12= 3.16D-13 1.00D-09 XBig12= 2.43D-07 2.75D-05.
    204 vectors produced by pass  5 Test12= 3.16D-13 1.00D-09 XBig12= 1.40D-09 2.75D-06.
    172 vectors produced by pass  6 Test12= 3.16D-13 1.00D-09 XBig12= 8.79D-12 1.92D-07.
     62 vectors produced by pass  7 Test12= 3.16D-13 1.00D-09 XBig12= 5.57D-14 1.08D-08.
      4 vectors produced by pass  8 Test12= 3.16D-13 1.00D-09 XBig12= 1.74D-15 1.50D-09.
      4 vectors produced by pass  9 Test12= 3.16D-13 1.00D-09 XBig12= 3.50D-15 3.32D-09.
      3 vectors produced by pass 10 Test12= 3.16D-13 1.00D-09 XBig12= 2.75D-15 3.59D-09.
      1 vectors produced by pass 11 Test12= 3.16D-13 1.00D-09 XBig12= 1.05D-15 1.06D-09.
 InvSVY:  IOpt=1 It=  1 EMax= 1.11D-15
 Solved reduced A of dimension  1473 with   210 vectors.
 End of Minotr F.D. properties file   721 does not exist.
 End of Minotr F.D. properties file   722 does not exist.
 End of Minotr F.D. properties file   788 does not exist.
 Leave Link 1002 at Fri May  2 12:01:29 2025, MaxMem= 12348030976 cpu:          154633.5 elap:            6458.6
 (Enter /sysapps/ubuntu-applications/gaussian-new/avx/g16/l601.exe)
 Copying SCF densities to generalized density rwf, IOpCl= 1 IROHF=0.

 **********************************************************************

            Population analysis using the SCF density.

 **********************************************************************

 Alpha  occ. eigenvalues --  -88.06148 -88.05614 -88.05404 -24.34301 -24.34084
 Alpha  occ. eigenvalues --  -24.34049 -24.33959 -24.33880 -24.33822 -24.33696
 Alpha  occ. eigenvalues --  -24.33666 -24.33641 -18.91836 -18.88016 -18.87967
 Alpha  occ. eigenvalues --  -18.84638 -18.84556 -18.84095 -18.83838 -18.83736
 Alpha  occ. eigenvalues --  -18.83657 -18.83650 -18.83601 -18.83515 -18.83003
 Alpha  occ. eigenvalues --  -18.82678 -17.81066 -14.28307 -14.19686 -14.12293
 Alpha  occ. eigenvalues --  -14.11909 -11.55921 -11.55911 -11.55878 -10.33500
 Alpha  occ. eigenvalues --  -10.33245 -10.33181 -10.21653 -10.21565 -10.19941
 Alpha  occ. eigenvalues --  -10.16428 -10.15938 -10.14260 -10.12006 -10.11933
 Alpha  occ. eigenvalues --  -10.11864 -10.11794 -10.11723 -10.11141 -10.10918
 Alpha  occ. eigenvalues --  -10.08672 -10.08128 -10.07891 -10.07541 -10.06845
 Alpha  occ. eigenvalues --  -10.06844  -7.95980  -7.95426  -7.95201  -6.15494
 Alpha  occ. eigenvalues --   -6.15449  -6.15333  -6.14945  -6.14894  -6.14788
 Alpha  occ. eigenvalues --   -6.14718  -6.14666  -6.14575  -5.40937  -5.40900
 Alpha  occ. eigenvalues --   -5.40888  -5.40874  -5.40840  -2.34094  -1.37910
 Alpha  occ. eigenvalues --   -1.37610  -1.37541  -1.27915  -1.27898  -1.27545
 Alpha  occ. eigenvalues --   -1.27511  -1.27499  -1.27418  -1.23861  -1.23789
 Alpha  occ. eigenvalues --   -1.22714  -1.19871  -1.18882  -1.18583  -1.17943
 Alpha  occ. eigenvalues --   -1.16200  -1.15974  -1.15432  -1.07469  -1.06625
 Alpha  occ. eigenvalues --   -1.06263  -1.06039  -1.05686  -1.05346  -1.04841
 Alpha  occ. eigenvalues --   -1.04460  -0.97654  -0.94988  -0.94623  -0.92088
 Alpha  occ. eigenvalues --   -0.91420  -0.86896  -0.83825  -0.81671  -0.80243
 Alpha  occ. eigenvalues --   -0.79850  -0.79767  -0.79431  -0.79308  -0.77053
 Alpha  occ. eigenvalues --   -0.75678  -0.74110  -0.72227  -0.72058  -0.71729
 Alpha  occ. eigenvalues --   -0.71618  -0.67894  -0.67800  -0.67606  -0.67481
 Alpha  occ. eigenvalues --   -0.67457  -0.67362  -0.67197  -0.66513  -0.65690
 Alpha  occ. eigenvalues --   -0.64942  -0.64434  -0.63175  -0.62319  -0.62231
 Alpha  occ. eigenvalues --   -0.61803  -0.61516  -0.61260  -0.60735  -0.60662
 Alpha  occ. eigenvalues --   -0.60624  -0.60598  -0.60519  -0.60473  -0.60450
 Alpha  occ. eigenvalues --   -0.59831  -0.59322  -0.57624  -0.57199  -0.56911
 Alpha  occ. eigenvalues --   -0.56754  -0.56298  -0.56227  -0.56130  -0.55890
 Alpha  occ. eigenvalues --   -0.55600  -0.55181  -0.55133  -0.55066  -0.54998
 Alpha  occ. eigenvalues --   -0.54868  -0.54492  -0.54188  -0.54040  -0.53816
 Alpha  occ. eigenvalues --   -0.53603  -0.53367  -0.53027  -0.52947  -0.52749
 Alpha  occ. eigenvalues --   -0.52000  -0.51671  -0.51661  -0.51504  -0.51424
 Alpha  occ. eigenvalues --   -0.51352  -0.50961  -0.50587  -0.49983  -0.49387
 Alpha  occ. eigenvalues --   -0.49201  -0.49092  -0.48948  -0.48784  -0.47644
 Alpha  occ. eigenvalues --   -0.47518  -0.47030  -0.46627  -0.46470  -0.45252
 Alpha  occ. eigenvalues --   -0.44952  -0.44790  -0.44388  -0.43833  -0.43660
 Alpha  occ. eigenvalues --   -0.43272  -0.42922  -0.42905  -0.42416  -0.41990
 Alpha  occ. eigenvalues --   -0.41342  -0.41243  -0.40901  -0.40771  -0.40563
 Alpha  occ. eigenvalues --   -0.40387  -0.39987  -0.39835  -0.39756  -0.39440
 Alpha  occ. eigenvalues --   -0.39307  -0.39164  -0.38926  -0.38678  -0.38547
 Alpha  occ. eigenvalues --   -0.38359  -0.37895  -0.37745  -0.37676  -0.37424
 Alpha  occ. eigenvalues --   -0.36881  -0.36584  -0.36334  -0.36271  -0.35692
 Alpha  occ. eigenvalues --   -0.35447  -0.32419  -0.30628  -0.28150  -0.26749
 Alpha virt. eigenvalues --   -0.09791  -0.06647  -0.04911  -0.01600  -0.00438
 Alpha virt. eigenvalues --    0.00309   0.03094   0.04936   0.05232   0.06117
 Alpha virt. eigenvalues --    0.06674   0.06807   0.07103   0.07513   0.08217
 Alpha virt. eigenvalues --    0.08904   0.09174   0.09318   0.09576   0.09897
 Alpha virt. eigenvalues --    0.10314   0.10496   0.10811   0.11008   0.11116
 Alpha virt. eigenvalues --    0.11328   0.11513   0.12148   0.12542   0.12875
 Alpha virt. eigenvalues --    0.13445   0.14003   0.14016   0.14194   0.14404
 Alpha virt. eigenvalues --    0.14840   0.15651   0.15803   0.16486   0.16524
[...]
    46   Atom        0.000000      0.000000      0.000000
    47   Atom        0.000000      0.000000      0.000000
    48   Atom        0.000000      0.000000      0.000000
    49   Atom        0.000000      0.000000      0.000000
    50   Atom        0.000000      0.000000      0.000000
    51   Atom        0.000000      0.000000      0.000000
    52   Atom        0.000000      0.000000      0.000000
    53   Atom        0.000000      0.000000      0.000000
    54   Atom        0.000000      0.000000      0.000000
    55   Atom        0.000000      0.000000      0.000000
    56   Atom        0.000000      0.000000      0.000000
    57   Atom        0.000000      0.000000      0.000000
    58   Atom        0.000000      0.000000      0.000000
    59   Atom        0.000000      0.000000      0.000000
    60   Atom        0.000000      0.000000      0.000000
    61   Atom        0.000000      0.000000      0.000000
    62   Atom        0.000000      0.000000      0.000000
    63   Atom        0.000000      0.000000      0.000000
    64   Atom        0.000000      0.000000      0.000000
    65   Atom        0.000000      0.000000      0.000000
    66   Atom        0.000000      0.000000      0.000000
    67   Atom        0.000000      0.000000      0.000000
    68   Atom        0.000000      0.000000      0.000000
    69   Atom        0.000000      0.000000      0.000000
 --------------------------------------------------------


 ---------------------------------------------------------------------------------
              Anisotropic Spin Dipole Couplings in Principal Axis System
 ---------------------------------------------------------------------------------

       Atom             a.u.   MegaHertz   Gauss  10(-4) cm-1        Axes

              Baa     0.0000     0.000     0.000     0.000  1.0000  0.0000  0.0000
     1 C(13)  Bbb     0.0000     0.000     0.000     0.000 -0.0000  1.0000  0.0000
              Bcc     0.0000     0.000     0.000     0.000  0.0000  0.0000  1.0000
 
              Baa     0.0000     0.000     0.000     0.000  1.0000  0.0000  0.0000
     2 C(13)  Bbb     0.0000     0.000     0.000     0.000 -0.0000  1.0000  0.0000
              Bcc     0.0000     0.000     0.000     0.000  0.0000  0.0000  1.0000
 
              Baa     0.0000     0.000     0.000     0.000  1.0000  0.0000  0.0000
     3 C(13)  Bbb     0.0000     0.000     0.000     0.000 -0.0000  1.0000  0.0000
              Bcc     0.0000     0.000     0.000     0.000  0.0000  0.0000  1.0000
 
              Baa     0.0000     0.000     0.000     0.000  1.0000  0.0000  0.0000
     4 C(13)  Bbb     0.0000     0.000     0.000     0.000 -0.0000  1.0000  0.0000
              Bcc     0.0000     0.000     0.000     0.000  0.0000  0.0000  1.0000
 
              Baa     0.0000     0.000     0.000     0.000  1.0000  0.0000  0.0000
     5 C(13)  Bbb     0.0000     0.000     0.000     0.000 -0.0000  1.0000  0.0000
              Bcc     0.0000     0.000     0.000     0.000  0.0000  0.0000  1.0000
 
              Baa     0.0000     0.000     0.000     0.000  1.0000  0.0000  0.0000
     6 C(13)  Bbb     0.0000     0.000     0.000     0.000 -0.0000  1.0000  0.0000
              Bcc     0.0000     0.000     0.000     0.000  0.0000  0.0000  1.0000
 
              Baa     0.0000     0.000     0.000     0.000  1.0000  0.0000  0.0000
     7 C(13)  Bbb     0.0000     0.000     0.000     0.000 -0.0000  1.0000  0.0000
              Bcc     0.0000     0.000     0.000     0.000  0.0000  0.0000  1.0000
 
              Baa     0.0000     0.000     0.000     0.000  1.0000  0.0000  0.0000
     8 C(13)  Bbb     0.0000     0.000     0.000     0.000 -0.0000  1.0000  0.0000
              Bcc     0.0000     0.000     0.000     0.000  0.0000  0.0000  1.0000
 
              Baa     0.0000     0.000     0.000     0.000  1.0000  0.0000  0.0000
     9 C(13)  Bbb     0.0000     0.000     0.000     0.000 -0.0000  1.0000  0.0000
              Bcc     0.0000     0.000     0.000     0.000  0.0000  0.0000  1.0000
 
              Baa     0.0000     0.000     0.000     0.000  1.0000  0.0000  0.0000
    10 H(1)   Bbb     0.0000     0.000     0.000     0.000 -0.0000  1.0000  0.0000
              Bcc     0.0000     0.000     0.000     0.000  0.0000  0.0000  1.0000
 
              Baa     0.0000     0.000     0.000     0.000  1.0000  0.0000  0.0000
    11 H(1)   Bbb     0.0000     0.000     0.000     0.000 -0.0000  1.0000  0.0000
              Bcc     0.0000     0.000     0.000     0.000  0.0000  0.0000  1.0000
 
              Baa     0.0000     0.000     0.000     0.000  1.0000  0.0000  0.0000
    12 H(1)   Bbb     0.0000     0.000     0.000     0.000 -0.0000  1.0000  0.0000
              Bcc     0.0000     0.000     0.000     0.000  0.0000  0.0000  1.0000
 
              Baa     0.0000     0.000     0.000     0.000  1.0000  0.0000  0.0000
    13 H(1)   Bbb     0.0000     0.000     0.000     0.000 -0.0000  1.0000  0.0000
              Bcc     0.0000     0.000     0.000     0.000  0.0000  0.0000  1.0000
 
              Baa     0.0000     0.000     0.000     0.000  1.0000  0.0000  0.0000
    14 H(1)   Bbb     0.0000     0.000     0.000     0.000 -0.0000  1.0000  0.0000
              Bcc     0.0000     0.000     0.000     0.000  0.0000  0.0000  1.0000
 
              Baa     0.0000    -0.000    -0.000    -0.000  1.0000  0.0000  0.0000
    15 O(17)  Bbb     0.0000    -0.000    -0.000    -0.000 -0.0000  1.0000  0.0000
              Bcc     0.0000    -0.000    -0.000    -0.000  0.0000  0.0000  1.0000
 
              Baa     0.0000    -0.000    -0.000    -0.000  1.0000  0.0000  0.0000
    16 O(17)  Bbb     0.0000    -0.000    -0.000    -0.000 -0.0000  1.0000  0.0000
              Bcc     0.0000    -0.000    -0.000    -0.000  0.0000  0.0000  1.0000
 
              Baa     0.0000    -0.000    -0.000    -0.000  1.0000  0.0000  0.0000
    17 O(17)  Bbb     0.0000    -0.000    -0.000    -0.000 -0.0000  1.0000  0.0000
              Bcc     0.0000    -0.000    -0.000    -0.000  0.0000  0.0000  1.0000
 
              Baa     0.0000    -0.000    -0.000    -0.000  1.0000  0.0000  0.0000
    18 O(17)  Bbb     0.0000    -0.000    -0.000    -0.000 -0.0000  1.0000  0.0000
              Bcc     0.0000    -0.000    -0.000    -0.000  0.0000  0.0000  1.0000
 
              Baa     0.0000     0.000     0.000     0.000  1.0000  0.0000  0.0000
    19 C(13)  Bbb     0.0000     0.000     0.000     0.000 -0.0000  1.0000  0.0000
              Bcc     0.0000     0.000     0.000     0.000  0.0000  0.0000  1.0000
 
              Baa     0.0000     0.000     0.000     0.000  1.0000  0.0000  0.0000
    20 C(13)  Bbb     0.0000     0.000     0.000     0.000 -0.0000  1.0000  0.0000
              Bcc     0.0000     0.000     0.000     0.000  0.0000  0.0000  1.0000
 
              Baa     0.0000     0.000     0.000     0.000  1.0000  0.0000  0.0000
    21 H(1)   Bbb     0.0000     0.000     0.000     0.000 -0.0000  1.0000  0.0000
              Bcc     0.0000     0.000     0.000     0.000  0.0000  0.0000  1.0000
 
              Baa     0.0000     0.000     0.000     0.000  1.0000  0.0000  0.0000
    22 H(1)   Bbb     0.0000     0.000     0.000     0.000 -0.0000  1.0000  0.0000
              Bcc     0.0000     0.000     0.000     0.000  0.0000  0.0000  1.0000
 
              Baa     0.0000     0.000     0.000     0.000  1.0000  0.0000  0.0000
    23 H(1)   Bbb     0.0000     0.000     0.000     0.000 -0.0000  1.0000  0.0000
              Bcc     0.0000     0.000     0.000     0.000  0.0000  0.0000  1.0000
 
              Baa     0.0000     0.000     0.000     0.000  1.0000  0.0000  0.0000
    24 H(1)   Bbb     0.0000     0.000     0.000     0.000 -0.0000  1.0000  0.0000
              Bcc     0.0000     0.000     0.000     0.000  0.0000  0.0000  1.0000
 
              Baa     0.0000     0.000     0.000     0.000  1.0000  0.0000  0.0000
    25 H(1)   Bbb     0.0000     0.000     0.000     0.000 -0.0000  1.0000  0.0000
              Bcc     0.0000     0.000     0.000     0.000  0.0000  0.0000  1.0000
 
              Baa     0.0000     0.000     0.000     0.000  1.0000  0.0000  0.0000
    26 H(1)   Bbb     0.0000     0.000     0.000     0.000 -0.0000  1.0000  0.0000
              Bcc     0.0000     0.000     0.000     0.000  0.0000  0.0000  1.0000
 
              Baa     0.0000    -0.000    -0.000    -0.000  1.0000  0.0000  0.0000
    27 O(17)  Bbb     0.0000    -0.000    -0.000    -0.000 -0.0000  1.0000  0.0000
              Bcc     0.0000    -0.000    -0.000    -0.000  0.0000  0.0000  1.0000
 
              Baa     0.0000    -0.000    -0.000    -0.000  1.0000  0.0000  0.0000
    28 O(17)  Bbb     0.0000    -0.000    -0.000    -0.000 -0.0000  1.0000  0.0000
              Bcc     0.0000    -0.000    -0.000    -0.000  0.0000  0.0000  1.0000
 
              Baa     0.0000    -0.000    -0.000    -0.000  1.0000  0.0000  0.0000
    29 O(17)  Bbb     0.0000    -0.000    -0.000    -0.000 -0.0000  1.0000  0.0000
              Bcc     0.0000    -0.000    -0.000    -0.000  0.0000  0.0000  1.0000
 
              Baa     0.0000     0.000     0.000     0.000  1.0000  0.0000  0.0000
    30 S(33)  Bbb     0.0000     0.000     0.000     0.000 -0.0000  1.0000  0.0000
              Bcc     0.0000     0.000     0.000     0.000  0.0000  0.0000  1.0000
 
              Baa     0.0000     0.000     0.000     0.000  1.0000  0.0000  0.0000
    31 S(33)  Bbb     0.0000     0.000     0.000     0.000 -0.0000  1.0000  0.0000
              Bcc     0.0000     0.000     0.000     0.000  0.0000  0.0000  1.0000
 
              Baa     0.0000     0.000     0.000     0.000  1.0000  0.0000  0.0000
    32 S(33)  Bbb     0.0000     0.000     0.000     0.000 -0.0000  1.0000  0.0000
              Bcc     0.0000     0.000     0.000     0.000  0.0000  0.0000  1.0000
 
              Baa     0.0000    -0.000    -0.000    -0.000  1.0000  0.0000  0.0000
    33 O(17)  Bbb     0.0000    -0.000    -0.000    -0.000 -0.0000  1.0000  0.0000
              Bcc     0.0000    -0.000    -0.000    -0.000  0.0000  0.0000  1.0000
 
              Baa     0.0000    -0.000    -0.000    -0.000  1.0000  0.0000  0.0000
    34 O(17)  Bbb     0.0000    -0.000    -0.000    -0.000 -0.0000  1.0000  0.0000
              Bcc     0.0000    -0.000    -0.000    -0.000  0.0000  0.0000  1.0000
 
              Baa     0.0000    -0.000    -0.000    -0.000  1.0000  0.0000  0.0000
    35 O(17)  Bbb     0.0000    -0.000    -0.000    -0.000 -0.0000  1.0000  0.0000
              Bcc     0.0000    -0.000    -0.000    -0.000  0.0000  0.0000  1.0000
 
              Baa     0.0000    -0.000    -0.000    -0.000  1.0000  0.0000  0.0000
    36 O(17)  Bbb     0.0000    -0.000    -0.000    -0.000 -0.0000  1.0000  0.0000
              Bcc     0.0000    -0.000    -0.000    -0.000  0.0000  0.0000  1.0000
 
              Baa     0.0000    -0.000    -0.000    -0.000  1.0000  0.0000  0.0000
    37 O(17)  Bbb     0.0000    -0.000    -0.000    -0.000 -0.0000  1.0000  0.0000
              Bcc     0.0000    -0.000    -0.000    -0.000  0.0000  0.0000  1.0000
 
              Baa     0.0000    -0.000    -0.000    -0.000  1.0000  0.0000  0.0000
    38 O(17)  Bbb     0.0000    -0.000    -0.000    -0.000 -0.0000  1.0000  0.0000
              Bcc     0.0000    -0.000    -0.000    -0.000  0.0000  0.0000  1.0000
 
              Baa     0.0000     0.000     0.000     0.000  1.0000  0.0000  0.0000
    39 C(13)  Bbb     0.0000     0.000     0.000     0.000 -0.0000  1.0000  0.0000
              Bcc     0.0000     0.000     0.000     0.000  0.0000  0.0000  1.0000
 
              Baa     0.0000     0.000     0.000     0.000  1.0000  0.0000  0.0000
    40 C(13)  Bbb     0.0000     0.000     0.000     0.000 -0.0000  1.0000  0.0000
              Bcc     0.0000     0.000     0.000     0.000  0.0000  0.0000  1.0000
 
              Baa     0.0000     0.000     0.000     0.000  1.0000  0.0000  0.0000
    41 C(13)  Bbb     0.0000     0.000     0.000     0.000 -0.0000  1.0000  0.0000
              Bcc     0.0000     0.000     0.000     0.000  0.0000  0.0000  1.0000
 
              Baa     0.0000     0.000     0.000     0.000  1.0000  0.0000  0.0000
    42 F(19)  Bbb     0.0000     0.000     0.000     0.000 -0.0000  1.0000  0.0000
              Bcc     0.0000     0.000     0.000     0.000  0.0000  0.0000  1.0000
 
              Baa     0.0000     0.000     0.000     0.000  1.0000  0.0000  0.0000
    43 F(19)  Bbb     0.0000     0.000     0.000     0.000 -0.0000  1.0000  0.0000
              Bcc     0.0000     0.000     0.000     0.000  0.0000  0.0000  1.0000
 
              Baa     0.0000     0.000     0.000     0.000  1.0000  0.0000  0.0000
    44 F(19)  Bbb     0.0000     0.000     0.000     0.000 -0.0000  1.0000  0.0000
              Bcc     0.0000     0.000     0.000     0.000  0.0000  0.0000  1.0000
 
              Baa     0.0000     0.000     0.000     0.000  1.0000  0.0000  0.0000
    45 F(19)  Bbb     0.0000     0.000     0.000     0.000 -0.0000  1.0000  0.0000
              Bcc     0.0000     0.000     0.000     0.000  0.0000  0.0000  1.0000
 
              Baa     0.0000     0.000     0.000     0.000  1.0000  0.0000  0.0000
    46 F(19)  Bbb     0.0000     0.000     0.000     0.000 -0.0000  1.0000  0.0000
              Bcc     0.0000     0.000     0.000     0.000  0.0000  0.0000  1.0000
 
              Baa     0.0000     0.000     0.000     0.000  1.0000  0.0000  0.0000
    47 F(19)  Bbb     0.0000     0.000     0.000     0.000 -0.0000  1.0000  0.0000
              Bcc     0.0000     0.000     0.000     0.000  0.0000  0.0000  1.0000
 
              Baa     0.0000     0.000     0.000     0.000  1.0000  0.0000  0.0000
    48 F(19)  Bbb     0.0000     0.000     0.000     0.000 -0.0000  1.0000  0.0000
              Bcc     0.0000     0.000     0.000     0.000  0.0000  0.0000  1.0000
 
              Baa     0.0000     0.000     0.000     0.000  1.0000  0.0000  0.0000
    49 F(19)  Bbb     0.0000     0.000     0.000     0.000 -0.0000  1.0000  0.0000
              Bcc     0.0000     0.000     0.000     0.000  0.0000  0.0000  1.0000
 
              Baa     0.0000     0.000     0.000     0.000  1.0000  0.0000  0.0000
    50 F(19)  Bbb     0.0000     0.000     0.000     0.000 -0.0000  1.0000  0.0000
              Bcc     0.0000     0.000     0.000     0.000  0.0000  0.0000  1.0000
 
              Baa     0.0000     0.000     0.000     0.000  1.0000  0.0000  0.0000
    51 C(13)  Bbb     0.0000     0.000     0.000     0.000 -0.0000  1.0000  0.0000
              Bcc     0.0000     0.000     0.000     0.000  0.0000  0.0000  1.0000
 
              Baa     0.0000     0.000     0.000     0.000  1.0000  0.0000  0.0000
    52 H(1)   Bbb     0.0000     0.000     0.000     0.000 -0.0000  1.0000  0.0000
              Bcc     0.0000     0.000     0.000     0.000  0.0000  0.0000  1.0000
 
              Baa     0.0000     0.000     0.000     0.000  1.0000  0.0000  0.0000
    53 C(13)  Bbb     0.0000     0.000     0.000     0.000 -0.0000  1.0000  0.0000
              Bcc     0.0000     0.000     0.000     0.000  0.0000  0.0000  1.0000
 
              Baa     0.0000     0.000     0.000     0.000  1.0000  0.0000  0.0000
    54 C(13)  Bbb     0.0000     0.000     0.000     0.000 -0.0000  1.0000  0.0000
              Bcc     0.0000     0.000     0.000     0.000  0.0000  0.0000  1.0000
 
              Baa     0.0000     0.000     0.000     0.000  1.0000  0.0000  0.0000
    55 C(13)  Bbb     0.0000     0.000     0.000     0.000 -0.0000  1.0000  0.0000
              Bcc     0.0000     0.000     0.000     0.000  0.0000  0.0000  1.0000
 
              Baa     0.0000     0.000     0.000     0.000  1.0000  0.0000  0.0000
    56 C(13)  Bbb     0.0000     0.000     0.000     0.000 -0.0000  1.0000  0.0000
              Bcc     0.0000     0.000     0.000     0.000  0.0000  0.0000  1.0000
 
              Baa     0.0000     0.000     0.000     0.000  1.0000  0.0000  0.0000
    57 C(13)  Bbb     0.0000     0.000     0.000     0.000 -0.0000  1.0000  0.0000
              Bcc     0.0000     0.000     0.000     0.000  0.0000  0.0000  1.0000
 
              Baa     0.0000     0.000     0.000     0.000  1.0000  0.0000  0.0000
    58 C(13)  Bbb     0.0000     0.000     0.000     0.000 -0.0000  1.0000  0.0000
              Bcc     0.0000     0.000     0.000     0.000  0.0000  0.0000  1.0000
 
              Baa     0.0000     0.000     0.000     0.000  1.0000  0.0000  0.0000
    59 H(1)   Bbb     0.0000     0.000     0.000     0.000 -0.0000  1.0000  0.0000
              Bcc     0.0000     0.000     0.000     0.000  0.0000  0.0000  1.0000
 
              Baa     0.0000     0.000     0.000     0.000  1.0000  0.0000  0.0000
    60 H(1)   Bbb     0.0000     0.000     0.000     0.000 -0.0000  1.0000  0.0000
              Bcc     0.0000     0.000     0.000     0.000  0.0000  0.0000  1.0000
 
              Baa     0.0000     0.000     0.000     0.000  1.0000  0.0000  0.0000
    61 H(1)   Bbb     0.0000     0.000     0.000     0.000 -0.0000  1.0000  0.0000
              Bcc     0.0000     0.000     0.000     0.000  0.0000  0.0000  1.0000
 
              Baa     0.0000     0.000     0.000     0.000  1.0000  0.0000  0.0000
    62 N(14)  Bbb     0.0000     0.000     0.000     0.000 -0.0000  1.0000  0.0000
              Bcc     0.0000     0.000     0.000     0.000  0.0000  0.0000  1.0000
 
              Baa     0.0000     0.000     0.000     0.000  1.0000  0.0000  0.0000
    63 N(14)  Bbb     0.0000     0.000     0.000     0.000 -0.0000  1.0000  0.0000
              Bcc     0.0000     0.000     0.000     0.000  0.0000  0.0000  1.0000
 
              Baa     0.0000     0.000     0.000     0.000  1.0000  0.0000  0.0000
    64 N(14)  Bbb     0.0000     0.000     0.000     0.000 -0.0000  1.0000  0.0000
              Bcc     0.0000     0.000     0.000     0.000  0.0000  0.0000  1.0000
 
              Baa     0.0000     0.000     0.000     0.000  1.0000  0.0000  0.0000
    65 N(14)  Bbb     0.0000     0.000     0.000     0.000 -0.0000  1.0000  0.0000
              Bcc     0.0000     0.000     0.000     0.000  0.0000  0.0000  1.0000
 
              Baa     0.0000     0.000     0.000     0.000  1.0000  0.0000  0.0000
    66 C(13)  Bbb     0.0000     0.000     0.000     0.000 -0.0000  1.0000  0.0000
              Bcc     0.0000     0.000     0.000     0.000  0.0000  0.0000  1.0000
 
              Baa     0.0000     0.000     0.000     0.000  1.0000  0.0000  0.0000
    67 H(1)   Bbb     0.0000     0.000     0.000     0.000 -0.0000  1.0000  0.0000
              Bcc     0.0000     0.000     0.000     0.000  0.0000  0.0000  1.0000
 
              Baa     0.0000     0.000     0.000     0.000  1.0000  0.0000  0.0000
    68 Lu(175 Bbb     0.0000     0.000     0.000     0.000 -0.0000  1.0000  0.0000
              Bcc     0.0000     0.000     0.000     0.000  0.0000  0.0000  1.0000
 
              Baa     0.0000    -0.000    -0.000    -0.000  1.0000  0.0000  0.0000
    69 O(17)  Bbb     0.0000    -0.000    -0.000    -0.000 -0.0000  1.0000  0.0000
              Bcc     0.0000    -0.000    -0.000    -0.000  0.0000  0.0000  1.0000
 

 ---------------------------------------------------------------------------------

 No NMR shielding tensors so no spin-rotation constants.
 Leave Link  601 at Fri May  2 17:53:32 2025, MaxMem= 12348030976 cpu:              36.3 elap:               1.6
 (Enter /sysapps/ubuntu-applications/gaussian-new/avx/g16/l9999.exe)

 This type of calculation cannot be archived.


 "ANNA, YOU MUSN'T SPEAK OF OXIDIZED MURIATIC ACID
 ANYMORE, FROM NOW ON YOU MUST SAY CHLORINE."
   -- JENS JACOB BERZELIUS, IN 1820, TO HIS COOK, WHO HAD
 COMPLAINED OF THE SMELL OF THE FLASK SHE WAS CLEANING.
 Job cpu time:       8 days 10 hours 55 minutes 51.2 seconds.
 Elapsed time:       0 days  8 hours 34 minutes  1.4 seconds.
 File lengths (MBytes):  RWF=  13952 Int=      0 D2E=      0 Chk=    136 Scr=      8
 Normal termination of Gaussian 16 at Fri May  2 17:53:32 2025.
