 Entering Gaussian System, Link 0=/sysapps/ubuntu-applications/gaussian-new/avx/g16//g16
 Input=i3-major.in
 Output=i3-major.log
 Initial command:
 /sysapps/ubuntu-applications/gaussian-new/avx/g16/l1.exe "/data/temp-scratch/selhajj1/7547987/Gau-1511542.inp" -scrdir="/data/temp-scratch/selhajj1/7547987/"
 Entering Link 1 = /sysapps/ubuntu-applications/gaussian-new/avx/g16/l1.exe PID=   1511544.
  
 Copyright (c) 1988,1990,1992,1993,1995,1998,2003,2009,2016,
            Gaussian, Inc.  All Rights Reserved.
  
 This is part of the Gaussian(R) 16 program.  It is based on
 the Gaussian(R) 09 system (copyright 2009, Gaussian, Inc.),
 the Gaussian(R) 03 system (copyright 2003, Gaussian, Inc.),
 the Gaussian(R) 98 system (copyright 1998, Gaussian, Inc.),
 the Gaussian(R) 94 system (copyright 1995, Gaussian, Inc.),
 the Gaussian 92(TM) system (copyright 1992, Gaussian, Inc.),
 the Gaussian 90(TM) system (copyright 1990, Gaussian, Inc.),
 the Gaussian 88(TM) system (copyright 1988, Gaussian, Inc.),
 the Gaussian 86(TM) system (copyright 1986, Carnegie Mellon
 University), and the Gaussian 82(TM) system (copyright 1983,
 Carnegie Mellon University). Gaussian is a federally registered
 trademark of Gaussian, Inc.
  
 This software contains proprietary and confidential information,
 including trade secrets, belonging to Gaussian, Inc.
  
 This software is provided under written license and may be
 used, copied, transmitted, or stored only in accord with that
 written license.
  
 The following legend is applicable only to US Government
 contracts under FAR:
  
                    RESTRICTED RIGHTS LEGEND
  
 Use, reproduction and disclosure by the US Government is
 subject to restrictions as set forth in subparagraphs (a)
 and (c) of the Commercial Computer Software - Restricted
 Rights clause in FAR 52.227-19.
  
 Gaussian, Inc.
 340 Quinnipiac St., Bldg. 40, Wallingford CT 06492
  
  
 ---------------------------------------------------------------
 Warning -- This program may not be used in any manner that
 competes with the business of Gaussian, Inc. or will provide
 assistance to any competitor of Gaussian, Inc.  The licensee
 of this program is prohibited from giving any competitor of
 Gaussian, Inc. access to this program.  By using this program,
 the user acknowledges that Gaussian, Inc. is engaged in the
 business of creating and licensing software in the field of
 computational chemistry and represents and warrants to the
 licensee that it is not a competitor of Gaussian, Inc. and that
 it will not use this program in any manner prohibited above.
 ---------------------------------------------------------------
  

 Cite this work as:
 Gaussian 16, Revision A.03,
 M. J. Frisch, G. W. Trucks, H. B. Schlegel, G. E. Scuseria, 
 M. A. Robb, J. R. Cheeseman, G. Scalmani, V. Barone, 
 G. A. Petersson, H. Nakatsuji, X. Li, M. Caricato, A. V. Marenich, 
 J. Bloino, B. G. Janesko, R. Gomperts, B. Mennucci, H. P. Hratchian, 
 J. V. Ortiz, A. F. Izmaylov, J. L. Sonnenberg, D. Williams-Young, 
 F. Ding, F. Lipparini, F. Egidi, J. Goings, B. Peng, A. Petrone, 
 T. Henderson, D. Ranasinghe, V. G. Zakrzewski, J. Gao, N. Rega, 
 G. Zheng, W. Liang, M. Hada, M. Ehara, K. Toyota, R. Fukuda, 
 J. Hasegawa, M. Ishida, T. Nakajima, Y. Honda, O. Kitao, H. Nakai, 
 T. Vreven, K. Throssell, J. A. Montgomery, Jr., J. E. Peralta, 
 F. Ogliaro, M. J. Bearpark, J. J. Heyd, E. N. Brothers, K. N. Kudin, 
 V. N. Staroverov, T. A. Keith, R. Kobayashi, J. Normand, 
 K. Raghavachari, A. P. Rendell, J. C. Burant, S. S. Iyengar, 
 J. Tomasi, M. Cossi, J. M. Millam, M. Klene, C. Adamo, R. Cammi, 
 J. W. Ochterski, R. L. Martin, K. Morokuma, O. Farkas, 
 J. B. Foresman, and D. J. Fox, Gaussian, Inc., Wallingford CT, 2016.
 
 ******************************************
 Gaussian 16:  ES64L-G16RevA.03 25-Dec-2016
                 7-Feb-2025 
 ******************************************
 %chk=i3-major.chk
 %mem=616Gb
 %nprocshared=24
 Will use up to   24 processors via shared memory.
 ----------------------------------------------------------------------
 #P UMN15/genecp scf=(maxcyc=500) opt scrf=(smd,solvent=DiChloroEthane)
 ----------------------------------------------------------------------
 1/18=20,19=15,26=3,38=1/1,3;
 2/9=110,12=2,17=6,18=5,40=1/2;
 3/5=7,11=2,16=1,17=8,25=1,30=1,70=32201,71=1,72=10,74=-73,116=2/1,2,3;
 4//1;
 5/5=2,7=500,38=5,53=10/2;
 6/7=2,8=2,9=2,10=2,28=1/1;
 7//1,2,3,16;
 1/18=20,19=15,26=3/3(2);
 2/9=110/2;
 99//99;
 2/9=110/2;
 3/5=7,6=1,11=2,16=1,17=8,25=1,30=1,70=32205,71=1,72=10,74=-73,82=7,116=2/1,2,3;
 4/5=5,16=3,69=1/1;
 5/5=2,7=500,38=5,53=10/2;
 7//1,2,3,16;
 1/18=20,19=15,26=3/3(-5);
 2/9=110/2;
 6/7=2,8=2,9=2,10=2,19=2,28=1/1;
 99/9=1/99;
 Leave Link    1 at Fri Feb  7 14:59:43 2025, MaxMem= 82678120448 cpu:               2.8 elap:               0.1
 (Enter /sysapps/ubuntu-applications/gaussian-new/avx/g16/l101.exe)
 ---
 Opt
 ---
 Symbolic Z-matrix:
 Charge =  0 Multiplicity = 2
 C                     4.547     1.1847   -0.7166 
 C                     4.38036   2.25556   0.1764 
 C                     4.96356   3.48934  -0.09686 
 C                     5.71819   3.66237  -1.26225 
 C                     5.88383   2.59951  -2.14929 
 C                     5.29806   1.35805  -1.88134 
 C                     2.60777  -1.84723  -1.30153 
 C                     1.30563  -1.24476  -0.72678 
 C                     2.38032  -2.36295  -2.73615 
 H                     3.78285   2.11602   1.08278 
 H                     4.82941   4.316     0.60331 
 H                     6.1768    4.62991  -1.47741 
 H                     6.46986   2.72945  -3.0612 
 H                     5.44887   0.54779  -2.59763 
 O                     1.88389  -1.65522  -3.58538 
 O                     0.6515   -0.42774  -1.33918 
 O                     1.06376  -1.61849   0.50157 
 O                     2.83944  -3.56642  -2.92735 
 C                    -0.08303  -1.04664   1.16057 
 C                     2.58699  -4.15066  -4.21921 
 H                    -0.20286  -1.60121   2.0962 
 H                    -0.97076  -1.15883   0.52707 
 H                     0.1093    0.01622   1.35858 
 H                     2.96458  -5.17602  -4.16832 
 H                     3.11841  -3.58067  -4.99244 
 H                     1.50531  -4.13075  -4.41181 
 O                    -0.67232  -3.11407  -4.74712 
 O                    -1.93828  -2.13089  -1.77258 
 O                     0.64573   1.24989  -3.97285 
 S                    -0.55487   2.08163  -3.72906 
 S                    -0.91749  -2.47769  -6.06703 
 S                    -1.16687  -3.34284  -1.40487 
 O                    -1.65327   1.21785  -3.21832 
 O                    -0.91006   3.04831  -4.74662 
 O                    -0.66079  -1.01969  -5.95524 
 O                    -0.40514  -3.15829  -7.23485 
 O                     0.2011   -3.26406  -1.98007 
 O                    -1.22407  -3.75316  -0.01305 
 C                    -1.98811  -4.7259   -2.351 
 C                    -2.74828  -2.546    -6.18109 
 C                    -0.1015    3.11595  -2.27785 
 F                    -1.07054  -5.47868  -2.92954 
 F                    -2.81258  -4.24456  -3.26093 
 F                    -2.67847  -5.46705  -1.49881 
 F                    -3.25452  -1.92434  -5.11828 
 F                    -3.16489  -3.80074  -6.18606 
 F                    -3.17394  -1.94006  -7.2762 
 F                     0.14283   2.36767  -1.213 
 F                    -1.09379   3.94699  -1.99962 
 F                     0.98545   3.8223   -2.56233 
 C                     3.86639  -0.09505  -0.30038 
 H                     2.95995   0.15961   0.28133 
 C                     4.65396  -1.09669   0.61236 
 C                     4.97219  -0.48681   1.91302 
 C                     5.87794  -1.5692   -0.06925 
 C                     2.35234  -4.07373  -0.02819 
 C                     2.67144  -3.60352   2.29234 
 C                     2.10335  -4.40487   1.27196 
 H                     1.93014  -4.63385  -0.86363 
 H                     2.48451  -3.79626   3.35038 
 H                     1.46962  -5.2526    1.53273 
 N                     5.2443    0.05776   2.89546 
 N                     6.81892  -1.95265  -0.62096 
 N                     3.75266  -2.2614    0.82071 
 N                     3.47222  -2.57177   2.04286 
 C                     3.23447  -2.93282  -0.36984 
 H                     4.09693  -3.32598  -0.94879 
 Yb                   -0.49475  -0.95581  -3.47008 
 O                     3.53604  -0.81164  -1.46782 
 
 ITRead=  0  0  0  0  0  0  0  0  0  0  0  0  0  0  0  0  0  0  0  0
 ITRead=  0  0  0  0  0  0  0  0  0  0  0  0  0  0  0  0  0  0  0  0
 ITRead=  0  0  0  0  0  0  0  0  0  0  0  0  0  0  0  0  0  0  0  0
 ITRead=  0  0  0  0  0  0  0  0  0
 MicOpt= -1 -1 -1 -1 -1 -1 -1 -1 -1 -1 -1 -1 -1 -1 -1 -1 -1 -1 -1 -1
 MicOpt= -1 -1 -1 -1 -1 -1 -1 -1 -1 -1 -1 -1 -1 -1 -1 -1 -1 -1 -1 -1
 MicOpt= -1 -1 -1 -1 -1 -1 -1 -1 -1 -1 -1 -1 -1 -1 -1 -1 -1 -1 -1 -1
 MicOpt= -1 -1 -1 -1 -1 -1 -1 -1 -1
 NAtoms=     69 NQM=       69 NQMF=       0 NMMI=      0 NMMIF=      0
                NMic=       0 NMicF=      0.
                    Isotopes and Nuclear Properties:
 (Nuclear quadrupole moments (NQMom) in fm**2, nuclear magnetic moments (NMagM)
  in nuclear magnetons)

  Atom         1           2           3           4           5           6           7           8           9          10
 IAtWgt=          12          12          12          12          12          12          12          12          12           1
 AtmWgt=  12.0000000  12.0000000  12.0000000  12.0000000  12.0000000  12.0000000  12.0000000  12.0000000  12.0000000   1.0078250
 NucSpn=           0           0           0           0           0           0           0           0           0           1
 AtZEff=  -0.0000000  -0.0000000  -0.0000000  -0.0000000  -0.0000000  -0.0000000  -0.0000000  -0.0000000  -0.0000000  -0.0000000
 NQMom=    0.0000000   0.0000000   0.0000000   0.0000000   0.0000000   0.0000000   0.0000000   0.0000000   0.0000000   0.0000000
 NMagM=    0.0000000   0.0000000   0.0000000   0.0000000   0.0000000   0.0000000   0.0000000   0.0000000   0.0000000   2.7928460
 AtZNuc=   6.0000000   6.0000000   6.0000000   6.0000000   6.0000000   6.0000000   6.0000000   6.0000000   6.0000000   1.0000000

  Atom        11          12          13          14          15          16          17          18          19          20
 IAtWgt=           1           1           1           1          16          16          16          16          12          12
 AtmWgt=   1.0078250   1.0078250   1.0078250   1.0078250  15.9949146  15.9949146  15.9949146  15.9949146  12.0000000  12.0000000
 NucSpn=           1           1           1           1           0           0           0           0           0           0
 AtZEff=  -0.0000000  -0.0000000  -0.0000000  -0.0000000  -0.0000000  -0.0000000  -0.0000000  -0.0000000  -0.0000000  -0.0000000
 NQMom=    0.0000000   0.0000000   0.0000000   0.0000000   0.0000000   0.0000000   0.0000000   0.0000000   0.0000000   0.0000000
 NMagM=    2.7928460   2.7928460   2.7928460   2.7928460   0.0000000   0.0000000   0.0000000   0.0000000   0.0000000   0.0000000
 AtZNuc=   1.0000000   1.0000000   1.0000000   1.0000000   8.0000000   8.0000000   8.0000000   8.0000000   6.0000000   6.0000000

  Atom        21          22          23          24          25          26          27          28          29          30
 IAtWgt=           1           1           1           1           1           1          16          16          16          32
 AtmWgt=   1.0078250   1.0078250   1.0078250   1.0078250   1.0078250   1.0078250  15.9949146  15.9949146  15.9949146  31.9720718
 NucSpn=           1           1           1           1           1           1           0           0           0           0
 AtZEff=  -0.0000000  -0.0000000  -0.0000000  -0.0000000  -0.0000000  -0.0000000  -0.0000000  -0.0000000  -0.0000000  -0.0000000
 NQMom=    0.0000000   0.0000000   0.0000000   0.0000000   0.0000000   0.0000000   0.0000000   0.0000000   0.0000000   0.0000000
 NMagM=    2.7928460   2.7928460   2.7928460   2.7928460   2.7928460   2.7928460   0.0000000   0.0000000   0.0000000   0.0000000
 AtZNuc=   1.0000000   1.0000000   1.0000000   1.0000000   1.0000000   1.0000000   8.0000000   8.0000000   8.0000000  16.0000000

  Atom        31          32          33          34          35          36          37          38          39          40
 IAtWgt=          32          32          16          16          16          16          16          16          12          12
 AtmWgt=  31.9720718  31.9720718  15.9949146  15.9949146  15.9949146  15.9949146  15.9949146  15.9949146  12.0000000  12.0000000
 NucSpn=           0           0           0           0           0           0           0           0           0           0
 AtZEff=  -0.0000000  -0.0000000  -0.0000000  -0.0000000  -0.0000000  -0.0000000  -0.0000000  -0.0000000  -0.0000000  -0.0000000
 NQMom=    0.0000000   0.0000000   0.0000000   0.0000000   0.0000000   0.0000000   0.0000000   0.0000000   0.0000000   0.0000000
 NMagM=    0.0000000   0.0000000   0.0000000   0.0000000   0.0000000   0.0000000   0.0000000   0.0000000   0.0000000   0.0000000
 AtZNuc=  16.0000000  16.0000000   8.0000000   8.0000000   8.0000000   8.0000000   8.0000000   8.0000000   6.0000000   6.0000000

  Atom        41          42          43          44          45          46          47          48          49          50
 IAtWgt=          12          19          19          19          19          19          19          19          19          19
 AtmWgt=  12.0000000  18.9984032  18.9984032  18.9984032  18.9984032  18.9984032  18.9984032  18.9984032  18.9984032  18.9984032
 NucSpn=           0           1           1           1           1           1           1           1           1           1
 AtZEff=  -0.0000000  -0.0000000  -0.0000000  -0.0000000  -0.0000000  -0.0000000  -0.0000000  -0.0000000  -0.0000000  -0.0000000
 NQMom=    0.0000000   0.0000000   0.0000000   0.0000000   0.0000000   0.0000000   0.0000000   0.0000000   0.0000000   0.0000000
 NMagM=    0.0000000   2.6288670   2.6288670   2.6288670   2.6288670   2.6288670   2.6288670   2.6288670   2.6288670   2.6288670
 AtZNuc=   6.0000000   9.0000000   9.0000000   9.0000000   9.0000000   9.0000000   9.0000000   9.0000000   9.0000000   9.0000000

  Atom        51          52          53          54          55          56          57          58          59          60
 IAtWgt=          12           1          12          12          12          12          12          12           1           1
 AtmWgt=  12.0000000   1.0078250  12.0000000  12.0000000  12.0000000  12.0000000  12.0000000  12.0000000   1.0078250   1.0078250
 NucSpn=           0           1           0           0           0           0           0           0           1           1
 AtZEff=  -0.0000000  -0.0000000  -0.0000000  -0.0000000  -0.0000000  -0.0000000  -0.0000000  -0.0000000  -0.0000000  -0.0000000
 NQMom=    0.0000000   0.0000000   0.0000000   0.0000000   0.0000000   0.0000000   0.0000000   0.0000000   0.0000000   0.0000000
 NMagM=    0.0000000   2.7928460   0.0000000   0.0000000   0.0000000   0.0000000   0.0000000   0.0000000   2.7928460   2.7928460
 AtZNuc=   6.0000000   1.0000000   6.0000000   6.0000000   6.0000000   6.0000000   6.0000000   6.0000000   1.0000000   1.0000000

  Atom        61          62          63          64          65          66          67          68          69
 IAtWgt=           1          14          14          14          14          12           1         174          16
 AtmWgt=   1.0078250  14.0030740  14.0030740  14.0030740  14.0030740  12.0000000   1.0078250 173.9390000  15.9949146
 NucSpn=           1           2           2           2           2           0           1           0           0
 AtZEff=  -0.0000000  -0.0000000  -0.0000000  -0.0000000  -0.0000000  -0.0000000  -0.0000000  -0.0000000  -0.0000000
 NQMom=    0.0000000   2.0440000   2.0440000   2.0440000   2.0440000   0.0000000   0.0000000   0.0000000   0.0000000
 NMagM=    2.7928460   0.4037610   0.4037610   0.4037610   0.4037610   0.0000000   2.7928460   0.0000000   0.0000000
 AtZNuc=   1.0000000   7.0000000   7.0000000   7.0000000   7.0000000   6.0000000   1.0000000  70.0000000   8.0000000
 Leave Link  101 at Fri Feb  7 14:59:44 2025, MaxMem= 82678120448 cpu:              20.7 elap:               0.9
 (Enter /sysapps/ubuntu-applications/gaussian-new/avx/g16/l103.exe)

 GradGradGradGradGradGradGradGradGradGradGradGradGradGradGradGradGradGrad
 Berny optimization.
 Initialization pass.
                           ----------------------------
                           !    Initial Parameters    !
                           ! (Angstroms and Degrees)  !
 --------------------------                            --------------------------
 ! Name  Definition              Value          Derivative Info.                !
 --------------------------------------------------------------------------------
 ! R1    R(1,2)                  1.4043         estimate D2E/DX2                !
 ! R2    R(1,6)                  1.3967         estimate D2E/DX2                !
 ! R3    R(1,51)                 1.5081         estimate D2E/DX2                !
 ! R4    R(2,3)                  1.3918         estimate D2E/DX2                !
 ! R5    R(2,10)                 1.0945         estimate D2E/DX2                !
 ! R6    R(3,4)                  1.3991         estimate D2E/DX2                !
 ! R7    R(3,11)                 1.0916         estimate D2E/DX2                !
 ! R8    R(4,5)                  1.3943         estimate D2E/DX2                !
 ! R9    R(4,12)                 1.0921         estimate D2E/DX2                !
 ! R10   R(5,6)                  1.3986         estimate D2E/DX2                !
 ! R11   R(5,13)                 1.0917         estimate D2E/DX2                !
 ! R12   R(6,14)                 1.0919         estimate D2E/DX2                !
 ! R13   R(7,8)                  1.5456         estimate D2E/DX2                !
 ! R14   R(7,9)                  1.5414         estimate D2E/DX2                !
 ! R15   R(7,66)                 1.5618         estimate D2E/DX2                !
 ! R16   R(7,69)                 1.4006         estimate D2E/DX2                !
 ! R17   R(8,16)                 1.2126         estimate D2E/DX2                !
 ! R18   R(8,17)                 1.3065         estimate D2E/DX2                !
 ! R19   R(9,15)                 1.2118         estimate D2E/DX2                !
 ! R20   R(9,18)                 1.3022         estimate D2E/DX2                !
 ! R21   R(15,68)                2.482          estimate D2E/DX2                !
 ! R22   R(16,68)                2.4766         estimate D2E/DX2                !
 ! R23   R(17,19)                1.441          estimate D2E/DX2                !
 ! R24   R(18,20)                1.4401         estimate D2E/DX2                !
 ! R25   R(19,21)                1.0942         estimate D2E/DX2                !
 ! R26   R(19,22)                1.0963         estimate D2E/DX2                !
 ! R27   R(19,23)                1.0981         estimate D2E/DX2                !
 ! R28   R(20,24)                1.0939         estimate D2E/DX2                !
 ! R29   R(20,25)                1.0978         estimate D2E/DX2                !
 ! R30   R(20,26)                1.0989         estimate D2E/DX2                !
 ! R31   R(27,31)                1.4857         estimate D2E/DX2                !
 ! R32   R(27,68)                2.514          estimate D2E/DX2                !
 ! R33   R(28,32)                1.4829         estimate D2E/DX2                !
 ! R34   R(28,68)                2.5191         estimate D2E/DX2                !
 ! R35   R(29,30)                1.4808         estimate D2E/DX2                !
 ! R36   R(29,68)                2.5335         estimate D2E/DX2                !
 ! R37   R(30,33)                1.4878         estimate D2E/DX2                !
 ! R38   R(30,34)                1.4478         estimate D2E/DX2                !
 ! R39   R(30,41)                1.8388         estimate D2E/DX2                !
 ! R40   R(30,68)                3.0491         estimate D2E/DX2                !
 ! R41   R(31,35)                1.4846         estimate D2E/DX2                !
 ! R42   R(31,36)                1.4455         estimate D2E/DX2                !
 ! R43   R(31,40)                1.8356         estimate D2E/DX2                !
 ! R44   R(31,68)                3.0396         estimate D2E/DX2                !
 ! R45   R(32,37)                1.4861         estimate D2E/DX2                !
 ! R46   R(32,38)                1.4522         estimate D2E/DX2                !
 ! R47   R(32,39)                1.8661         estimate D2E/DX2                !
 ! R48   R(33,68)                2.476          estimate D2E/DX2                !
 ! R49   R(35,68)                2.4915         estimate D2E/DX2                !
 ! R50   R(39,42)                1.3203         estimate D2E/DX2                !
 ! R51   R(39,43)                1.3189         estimate D2E/DX2                !
 ! R52   R(39,44)                1.3237         estimate D2E/DX2                !
 ! R53   R(40,45)                1.3313         estimate D2E/DX2                !
 ! R54   R(40,46)                1.3221         estimate D2E/DX2                !
 ! R55   R(40,47)                1.322          estimate D2E/DX2                !
 ! R56   R(41,48)                1.3242         estimate D2E/DX2                !
 ! R57   R(41,49)                1.3239         estimate D2E/DX2                !
 ! R58   R(41,50)                1.3271         estimate D2E/DX2                !
 ! R59   R(51,52)                1.1067         estimate D2E/DX2                !
 ! R60   R(51,53)                1.5674         estimate D2E/DX2                !
 ! R61   R(51,69)                1.4091         estimate D2E/DX2                !
 ! R62   R(53,54)                1.4714         estimate D2E/DX2                !
 ! R63   R(53,55)                1.4785         estimate D2E/DX2                !
 ! R64   R(53,64)                1.4874         estimate D2E/DX2                !
 ! R65   R(54,62)                1.1558         estimate D2E/DX2                !
 ! R66   R(55,63)                1.1562         estimate D2E/DX2                !
 ! R67   R(56,58)                1.3646         estimate D2E/DX2                !
 ! R68   R(56,59)                1.0908         estimate D2E/DX2                !
 ! R69   R(56,66)                1.4821         estimate D2E/DX2                !
 ! R70   R(57,58)                1.4164         estimate D2E/DX2                !
 ! R71   R(57,60)                1.0916         estimate D2E/DX2                !
 ! R72   R(57,65)                1.3297         estimate D2E/DX2                !
 ! R73   R(58,61)                1.0901         estimate D2E/DX2                !
 ! R74   R(64,65)                1.2918         estimate D2E/DX2                !
 ! R75   R(64,66)                1.4618         estimate D2E/DX2                !
 ! R76   R(66,67)                1.1107         estimate D2E/DX2                !
 ! A1    A(2,1,6)              119.9653         estimate D2E/DX2                !
 ! A2    A(2,1,51)             114.7121         estimate D2E/DX2                !
 ! A3    A(6,1,51)             125.3226         estimate D2E/DX2                !
 ! A4    A(1,2,3)              120.0947         estimate D2E/DX2                !
 ! A5    A(1,2,10)             119.6146         estimate D2E/DX2                !
 ! A6    A(3,2,10)             120.2886         estimate D2E/DX2                !
 ! A7    A(2,3,4)              119.9461         estimate D2E/DX2                !
 ! A8    A(2,3,11)             119.5967         estimate D2E/DX2                !
 ! A9    A(4,3,11)             120.4571         estimate D2E/DX2                !
 ! A10   A(3,4,5)              119.982          estimate D2E/DX2                !
 ! A11   A(3,4,12)             120.0099         estimate D2E/DX2                !
 ! A12   A(5,4,12)             120.0081         estimate D2E/DX2                !
 ! A13   A(4,5,6)              120.3321         estimate D2E/DX2                !
 ! A14   A(4,5,13)             120.2949         estimate D2E/DX2                !
 ! A15   A(6,5,13)             119.3727         estimate D2E/DX2                !
 ! A16   A(1,6,5)              119.6795         estimate D2E/DX2                !
 ! A17   A(1,6,14)             121.9523         estimate D2E/DX2                !
 ! A18   A(5,6,14)             118.3679         estimate D2E/DX2                !
 ! A19   A(8,7,9)              110.6222         estimate D2E/DX2                !
 ! A20   A(8,7,66)             112.7779         estimate D2E/DX2                !
 ! A21   A(8,7,69)             108.3184         estimate D2E/DX2                !
 ! A22   A(9,7,66)             112.4498         estimate D2E/DX2                !
 ! A23   A(9,7,69)             103.5726         estimate D2E/DX2                !
 ! A24   A(66,7,69)            108.5913         estimate D2E/DX2                !
 ! A25   A(7,8,16)             121.9582         estimate D2E/DX2                !
 ! A26   A(7,8,17)             113.208          estimate D2E/DX2                !
 ! A27   A(16,8,17)            124.5881         estimate D2E/DX2                !
 ! A28   A(7,9,15)             121.1507         estimate D2E/DX2                !
 ! A29   A(7,9,18)             113.1941         estimate D2E/DX2                !
 ! A30   A(15,9,18)            125.5417         estimate D2E/DX2                !
 ! A31   A(9,15,68)            121.6418         estimate D2E/DX2                !
 ! A32   A(8,16,68)            122.7203         estimate D2E/DX2                !
 ! A33   A(8,17,19)            117.6307         estimate D2E/DX2                !
 ! A34   A(9,18,20)            116.4127         estimate D2E/DX2                !
 ! A35   A(17,19,21)           106.0855         estimate D2E/DX2                !
 ! A36   A(17,19,22)           109.8487         estimate D2E/DX2                !
 ! A37   A(17,19,23)           109.0973         estimate D2E/DX2                !
 ! A38   A(21,19,22)           110.7046         estimate D2E/DX2                !
 ! A39   A(21,19,23)           110.8269         estimate D2E/DX2                !
 ! A40   A(22,19,23)           110.1852         estimate D2E/DX2                !
 ! A41   A(18,20,24)           106.1427         estimate D2E/DX2                !
 ! A42   A(18,20,25)           109.6536         estimate D2E/DX2                !
 ! A43   A(18,20,26)           108.8097         estimate D2E/DX2                !
 ! A44   A(24,20,25)           110.6323         estimate D2E/DX2                !
 ! A45   A(24,20,26)           111.4031         estimate D2E/DX2                !
 ! A46   A(25,20,26)           110.0993         estimate D2E/DX2                !
 ! A47   A(32,28,68)           104.4908         estimate D2E/DX2                !
 ! A48   A(29,30,33)           109.2088         estimate D2E/DX2                !
 ! A49   A(29,30,34)           117.274          estimate D2E/DX2                !
 ! A50   A(29,30,41)           104.2393         estimate D2E/DX2                !
 ! A51   A(33,30,34)           116.6029         estimate D2E/DX2                !
 ! A52   A(33,30,41)           103.7493         estimate D2E/DX2                !
 ! A53   A(34,30,41)           103.8628         estimate D2E/DX2                !
 ! A54   A(34,30,68)           136.8605         estimate D2E/DX2                !
 ! A55   A(41,30,68)           119.2385         estimate D2E/DX2                !
 ! A56   A(27,31,35)           108.9789         estimate D2E/DX2                !
 ! A57   A(27,31,36)           117.2311         estimate D2E/DX2                !
 ! A58   A(27,31,40)           101.7622         estimate D2E/DX2                !
 ! A59   A(35,31,36)           117.5122         estimate D2E/DX2                !
 ! A60   A(35,31,40)           102.3378         estimate D2E/DX2                !
 ! A61   A(36,31,40)           106.606          estimate D2E/DX2                !
 ! A62   A(36,31,68)           151.2459         estimate D2E/DX2                !
 ! A63   A(40,31,68)           102.1478         estimate D2E/DX2                !
 ! A64   A(28,32,37)           109.8493         estimate D2E/DX2                !
 ! A65   A(28,32,38)           116.6209         estimate D2E/DX2                !
 ! A66   A(28,32,39)           104.5406         estimate D2E/DX2                !
 ! A67   A(37,32,38)           114.9742         estimate D2E/DX2                !
 ! A68   A(37,32,39)           104.3685         estimate D2E/DX2                !
 ! A69   A(38,32,39)           105.0218         estimate D2E/DX2                !
 ! A70   A(32,39,42)           109.8084         estimate D2E/DX2                !
 ! A71   A(32,39,43)           110.758          estimate D2E/DX2                !
 ! A72   A(32,39,44)           108.5475         estimate D2E/DX2                !
 ! A73   A(42,39,43)           109.8892         estimate D2E/DX2                !
 ! A74   A(42,39,44)           108.9843         estimate D2E/DX2                !
 ! A75   A(43,39,44)           108.8135         estimate D2E/DX2                !
 ! A76   A(31,40,45)           108.1966         estimate D2E/DX2                !
 ! A77   A(31,40,46)           110.4771         estimate D2E/DX2                !
 ! A78   A(31,40,47)           110.8271         estimate D2E/DX2                !
 ! A79   A(45,40,46)           109.0474         estimate D2E/DX2                !
 ! A80   A(45,40,47)           108.9572         estimate D2E/DX2                !
 ! A81   A(46,40,47)           109.2952         estimate D2E/DX2                !
 ! A82   A(30,41,48)           111.2396         estimate D2E/DX2                !
 ! A83   A(30,41,49)           109.5208         estimate D2E/DX2                !
 ! A84   A(30,41,50)           109.3986         estimate D2E/DX2                !
 ! A85   A(48,41,49)           108.9052         estimate D2E/DX2                !
 ! A86   A(48,41,50)           108.7844         estimate D2E/DX2                !
 ! A87   A(49,41,50)           108.9548         estimate D2E/DX2                !
 ! A88   A(1,51,52)            108.6291         estimate D2E/DX2                !
 ! A89   A(1,51,53)            118.4411         estimate D2E/DX2                !
 ! A90   A(1,51,69)            107.9804         estimate D2E/DX2                !
 ! A91   A(52,51,53)           104.6259         estimate D2E/DX2                !
 ! A92   A(52,51,69)           111.1295         estimate D2E/DX2                !
 ! A93   A(53,51,69)           105.979          estimate D2E/DX2                !
 ! A94   A(51,53,54)           111.0122         estimate D2E/DX2                !
 ! A95   A(51,53,55)           110.5941         estimate D2E/DX2                !
 ! A96   A(51,53,64)           106.1116         estimate D2E/DX2                !
 ! A97   A(54,53,55)           111.158          estimate D2E/DX2                !
 ! A98   A(54,53,64)           109.3789         estimate D2E/DX2                !
 ! A99   A(55,53,64)           108.4191         estimate D2E/DX2                !
 ! A100  A(58,56,59)           122.309          estimate D2E/DX2                !
 ! A101  A(58,56,66)           121.0003         estimate D2E/DX2                !
 ! A102  A(59,56,66)           116.6859         estimate D2E/DX2                !
 ! A103  A(58,57,60)           121.9857         estimate D2E/DX2                !
 ! A104  A(58,57,65)           123.0524         estimate D2E/DX2                !
 ! A105  A(60,57,65)           114.961          estimate D2E/DX2                !
 ! A106  A(56,58,57)           118.4204         estimate D2E/DX2                !
 ! A107  A(56,58,61)           121.5148         estimate D2E/DX2                !
 ! A108  A(57,58,61)           120.0559         estimate D2E/DX2                !
 ! A109  A(53,64,65)           116.8868         estimate D2E/DX2                !
 ! A110  A(53,64,66)           117.4138         estimate D2E/DX2                !
 ! A111  A(65,64,66)           125.6793         estimate D2E/DX2                !
 ! A112  A(57,65,64)           119.65           estimate D2E/DX2                !
 ! A113  A(7,66,56)            115.7064         estimate D2E/DX2                !
 ! A114  A(7,66,64)            107.989          estimate D2E/DX2                !
 ! A115  A(7,66,67)            104.2804         estimate D2E/DX2                !
 ! A116  A(56,66,64)           112.1386         estimate D2E/DX2                !
 ! A117  A(56,66,67)           108.0503         estimate D2E/DX2                !
 ! A118  A(64,66,67)           108.1715         estimate D2E/DX2                !
 ! A119  A(15,68,16)            69.9096         estimate D2E/DX2                !
 ! A120  A(15,68,27)            78.5907         estimate D2E/DX2                !
 ! A121  A(15,68,28)           116.6806         estimate D2E/DX2                !
 ! A122  A(15,68,29)            78.7376         estimate D2E/DX2                !
 ! A123  A(15,68,30)           107.1975         estimate D2E/DX2                !
 ! A124  A(15,68,31)            87.278          estimate D2E/DX2                !
 ! A125  A(15,68,33)           134.4696         estimate D2E/DX2                !
 ! A126  A(15,68,35)            90.5906         estimate D2E/DX2                !
 ! A127  A(16,68,27)           130.7531         estimate D2E/DX2                !
 ! A128  A(16,68,28)            77.578          estimate D2E/DX2                !
 ! A129  A(16,68,29)            77.1009         estimate D2E/DX2                !
 ! A130  A(16,68,30)            82.5186         estimate D2E/DX2                !
 ! A131  A(16,68,31)           154.9931         estimate D2E/DX2                !
 ! A132  A(16,68,33)            86.6684         estimate D2E/DX2                !
 ! A133  A(16,68,35)           153.4487         estimate D2E/DX2                !
 ! A134  A(27,68,28)            84.3395         estimate D2E/DX2                !
 ! A135  A(27,68,29)           132.7182         estimate D2E/DX2                !
 ! A136  A(27,68,30)           144.1614         estimate D2E/DX2                !
 ! A137  A(27,68,33)           140.5576         estimate D2E/DX2                !
 ! A138  A(27,68,35)            57.7657         estimate D2E/DX2                !
 ! A139  A(28,68,29)           142.9191         estimate D2E/DX2                !
 ! A140  A(28,68,30)           120.7052         estimate D2E/DX2                !
 ! A141  A(28,68,31)           105.2166         estimate D2E/DX2                !
 ! A142  A(28,68,33)            94.1788         estimate D2E/DX2                !
 ! A143  A(28,68,35)           128.4603         estimate D2E/DX2                !
 ! A144  A(29,68,31)           109.2057         estimate D2E/DX2                !
 ! A145  A(29,68,33)            57.7574         estimate D2E/DX2                !
 ! A146  A(29,68,35)            81.6265         estimate D2E/DX2                !
 ! A147  A(30,68,31)           115.0537         estimate D2E/DX2                !
 ! A148  A(30,68,35)            86.5317         estimate D2E/DX2                !
 ! A149  A(31,68,33)           117.4745         estimate D2E/DX2                !
 ! A150  A(33,68,35)            95.3215         estimate D2E/DX2                !
 ! A151  A(7,69,51)            115.6586         estimate D2E/DX2                !
 ! A152  L(53,54,62,2,-1)      176.444          estimate D2E/DX2                !
 ! A153  L(53,55,63,4,-1)      180.4569         estimate D2E/DX2                !
 ! A154  L(53,54,62,2,-2)      181.7158         estimate D2E/DX2                !
 ! A155  L(53,55,63,4,-2)      181.3697         estimate D2E/DX2                !
 ! D1    D(6,1,2,3)             -0.0563         estimate D2E/DX2                !
 ! D2    D(6,1,2,10)           179.4299         estimate D2E/DX2                !
 ! D3    D(51,1,2,3)           179.8836         estimate D2E/DX2                !
 ! D4    D(51,1,2,10)           -0.6302         estimate D2E/DX2                !
 ! D5    D(2,1,6,5)              0.1767         estimate D2E/DX2                !
 ! D6    D(2,1,6,14)           179.9698         estimate D2E/DX2                !
 ! D7    D(51,1,6,5)          -179.7564         estimate D2E/DX2                !
 ! D8    D(51,1,6,14)            0.0367         estimate D2E/DX2                !
 ! D9    D(2,1,51,52)           30.6652         estimate D2E/DX2                !
 ! D10   D(2,1,51,53)          -88.3883         estimate D2E/DX2                !
 ! D11   D(2,1,51,69)          151.2853         estimate D2E/DX2                !
 ! D12   D(6,1,51,52)         -149.3986         estimate D2E/DX2                !
 ! D13   D(6,1,51,53)           91.5479         estimate D2E/DX2                !
 ! D14   D(6,1,51,69)          -28.7785         estimate D2E/DX2                !
 ! D15   D(1,2,3,4)             -0.0719         estimate D2E/DX2                !
 ! D16   D(1,2,3,11)          -179.9542         estimate D2E/DX2                !
 ! D17   D(10,2,3,4)          -179.5546         estimate D2E/DX2                !
 ! D18   D(10,2,3,11)            0.5631         estimate D2E/DX2                !
 ! D19   D(2,3,4,5)              0.0788         estimate D2E/DX2                !
 ! D20   D(2,3,4,12)          -179.9635         estimate D2E/DX2                !
 ! D21   D(11,3,4,5)           179.9602         estimate D2E/DX2                !
 ! D22   D(11,3,4,12)           -0.0822         estimate D2E/DX2                !
 ! D23   D(3,4,5,6)              0.0426         estimate D2E/DX2                !
 ! D24   D(3,4,5,13)           179.8699         estimate D2E/DX2                !
 ! D25   D(12,4,5,6)          -179.915          estimate D2E/DX2                !
 ! D26   D(12,4,5,13)           -0.0878         estimate D2E/DX2                !
 ! D27   D(4,5,6,1)             -0.1703         estimate D2E/DX2                !
 ! D28   D(4,5,6,14)          -179.9708         estimate D2E/DX2                !
 ! D29   D(13,5,6,1)          -179.9992         estimate D2E/DX2                !
 ! D30   D(13,5,6,14)            0.2003         estimate D2E/DX2                !
 ! D31   D(9,7,8,16)           -49.9791         estimate D2E/DX2                !
 ! D32   D(9,7,8,17)           135.4715         estimate D2E/DX2                !
 ! D33   D(66,7,8,16)         -176.8883         estimate D2E/DX2                !
 ! D34   D(66,7,8,17)            8.5623         estimate D2E/DX2                !
 ! D35   D(69,7,8,16)           62.8957         estimate D2E/DX2                !
 ! D36   D(69,7,8,17)         -111.6537         estimate D2E/DX2                !
 ! D37   D(8,7,9,15)            51.8869         estimate D2E/DX2                !
 ! D38   D(8,7,9,18)          -131.7797         estimate D2E/DX2                !
 ! D39   D(66,7,9,15)          178.9774         estimate D2E/DX2                !
 ! D40   D(66,7,9,18)           -4.6892         estimate D2E/DX2                !
 ! D41   D(69,7,9,15)          -63.9821         estimate D2E/DX2                !
 ! D42   D(69,7,9,18)          112.3514         estimate D2E/DX2                !
 ! D43   D(8,7,66,56)           56.7886         estimate D2E/DX2                !
 ! D44   D(8,7,66,64)          -69.7992         estimate D2E/DX2                !
 ! D45   D(8,7,66,67)          175.3034         estimate D2E/DX2                !
 ! D46   D(9,7,66,56)          -69.1429         estimate D2E/DX2                !
 ! D47   D(9,7,66,64)          164.2693         estimate D2E/DX2                !
 ! D48   D(9,7,66,67)           49.3718         estimate D2E/DX2                !
 ! D49   D(69,7,66,56)         176.8478         estimate D2E/DX2                !
 ! D50   D(69,7,66,64)          50.26           estimate D2E/DX2                !
 ! D51   D(69,7,66,67)         -64.6374         estimate D2E/DX2                !
 ! D52   D(8,7,69,51)           58.6729         estimate D2E/DX2                !
 ! D53   D(9,7,69,51)          176.1627         estimate D2E/DX2                !
 ! D54   D(66,7,69,51)         -64.1228         estimate D2E/DX2                !
 ! D55   D(7,8,16,68)           65.2138         estimate D2E/DX2                !
 ! D56   D(17,8,16,68)        -120.8735         estimate D2E/DX2                !
 ! D57   D(7,8,17,19)          176.2037         estimate D2E/DX2                !
 ! D58   D(16,8,17,19)           1.8215         estimate D2E/DX2                !
 ! D59   D(7,9,15,68)          -68.4625         estimate D2E/DX2                !
 ! D60   D(18,9,15,68)         115.6801         estimate D2E/DX2                !
 ! D61   D(7,9,18,20)          176.1041         estimate D2E/DX2                !
 ! D62   D(15,9,18,20)          -7.7525         estimate D2E/DX2                !
 ! D63   D(9,15,68,16)          52.4003         estimate D2E/DX2                !
 ! D64   D(9,15,68,27)         -89.1285         estimate D2E/DX2                !
 ! D65   D(9,15,68,28)         -11.4868         estimate D2E/DX2                !
 ! D66   D(9,15,68,29)         132.6398         estimate D2E/DX2                !
 ! D67   D(9,15,68,30)         127.4292         estimate D2E/DX2                !
 ! D68   D(9,15,68,31)        -117.1621         estimate D2E/DX2                !
 ! D69   D(9,15,68,33)         115.9283         estimate D2E/DX2                !
 ! D70   D(9,15,68,35)        -146.0187         estimate D2E/DX2                !
 ! D71   D(8,16,68,15)         -50.9578         estimate D2E/DX2                !
 ! D72   D(8,16,68,27)           2.6546         estimate D2E/DX2                !
 ! D73   D(8,16,68,28)          73.8017         estimate D2E/DX2                !
 ! D74   D(8,16,68,29)        -133.5127         estimate D2E/DX2                !
 ! D75   D(8,16,68,30)        -162.3997         estimate D2E/DX2                !
 ! D76   D(8,16,68,31)         -25.6122         estimate D2E/DX2                !
 ! D77   D(8,16,68,33)         168.8252         estimate D2E/DX2                !
 ! D78   D(8,16,68,35)         -95.9343         estimate D2E/DX2                !
 ! D79   D(8,17,19,21)         170.9421         estimate D2E/DX2                !
 ! D80   D(8,17,19,22)          51.2533         estimate D2E/DX2                !
 ! D81   D(8,17,19,23)         -69.6238         estimate D2E/DX2                !
 ! D82   D(9,18,20,24)        -175.3877         estimate D2E/DX2                !
 ! D83   D(9,18,20,25)          65.0812         estimate D2E/DX2                !
 ! D84   D(9,18,20,26)         -55.3923         estimate D2E/DX2                !
 ! D85   D(68,28,32,37)          9.5702         estimate D2E/DX2                !
 ! D86   D(68,28,32,38)        142.6522         estimate D2E/DX2                !
 ! D87   D(68,28,32,39)       -101.9109         estimate D2E/DX2                !
 ! D88   D(32,28,68,15)        -16.4575         estimate D2E/DX2                !
 ! D89   D(32,28,68,16)        -76.17           estimate D2E/DX2                !
 ! D90   D(32,28,68,27)         57.7424         estimate D2E/DX2                !
 ! D91   D(32,28,68,29)       -124.0593         estimate D2E/DX2                !
 ! D92   D(32,28,68,30)       -149.5588         estimate D2E/DX2                !
 ! D93   D(32,28,68,31)         78.2236         estimate D2E/DX2                !
 ! D94   D(32,28,68,33)       -161.8251         estimate D2E/DX2                !
 ! D95   D(32,28,68,35)         97.992          estimate D2E/DX2                !
 ! D96   D(29,30,41,48)        -62.0306         estimate D2E/DX2                !
 ! D97   D(29,30,41,49)        177.5312         estimate D2E/DX2                !
 ! D98   D(29,30,41,50)         58.1766         estimate D2E/DX2                !
 ! D99   D(33,30,41,48)         52.2715         estimate D2E/DX2                !
 ! D100  D(33,30,41,49)        -68.1667         estimate D2E/DX2                !
 ! D101  D(33,30,41,50)        172.4787         estimate D2E/DX2                !
 ! D102  D(34,30,41,48)        174.6311         estimate D2E/DX2                !
 ! D103  D(34,30,41,49)         54.1929         estimate D2E/DX2                !
 ! D104  D(34,30,41,50)        -65.1616         estimate D2E/DX2                !
 ! D105  D(68,30,41,48)         -3.4902         estimate D2E/DX2                !
 ! D106  D(68,30,41,49)       -123.9284         estimate D2E/DX2                !
 ! D107  D(68,30,41,50)        116.7171         estimate D2E/DX2                !
 ! D108  D(34,30,68,15)        105.5286         estimate D2E/DX2                !
 ! D109  D(34,30,68,16)        171.7433         estimate D2E/DX2                !
 ! D110  D(34,30,68,27)         11.2354         estimate D2E/DX2                !
 ! D111  D(34,30,68,28)       -117.545          estimate D2E/DX2                !
 ! D112  D(34,30,68,31)         10.3764         estimate D2E/DX2                !
 ! D113  D(34,30,68,35)         15.9839         estimate D2E/DX2                !
 ! D114  D(41,30,68,15)        -77.1394         estimate D2E/DX2                !
 ! D115  D(41,30,68,16)        -10.9247         estimate D2E/DX2                !
 ! D116  D(41,30,68,27)       -171.4326         estimate D2E/DX2                !
 ! D117  D(41,30,68,28)         59.787          estimate D2E/DX2                !
 ! D118  D(41,30,68,31)       -172.2916         estimate D2E/DX2                !
 ! D119  D(41,30,68,35)       -166.6841         estimate D2E/DX2                !
 ! D120  D(27,31,40,45)         56.7343         estimate D2E/DX2                !
 ! D121  D(27,31,40,46)        -62.5704         estimate D2E/DX2                !
 ! D122  D(27,31,40,47)        176.1351         estimate D2E/DX2                !
 ! D123  D(35,31,40,45)        -55.9463         estimate D2E/DX2                !
 ! D124  D(35,31,40,46)       -175.251          estimate D2E/DX2                !
 ! D125  D(35,31,40,47)         63.4545         estimate D2E/DX2                !
 ! D126  D(36,31,40,45)       -179.91           estimate D2E/DX2                !
 ! D127  D(36,31,40,46)         60.7853         estimate D2E/DX2                !
 ! D128  D(36,31,40,47)        -60.5092         estimate D2E/DX2                !
 ! D129  D(68,31,40,45)         -0.0242         estimate D2E/DX2                !
 ! D130  D(68,31,40,46)       -119.329          estimate D2E/DX2                !
 ! D131  D(68,31,40,47)        119.3765         estimate D2E/DX2                !
 ! D132  D(36,31,68,15)        -12.9701         estimate D2E/DX2                !
 ! D133  D(36,31,68,16)        -36.7036         estimate D2E/DX2                !
 ! D134  D(36,31,68,28)       -129.9015         estimate D2E/DX2                !
 ! D135  D(36,31,68,29)         64.1089         estimate D2E/DX2                !
 ! D136  D(36,31,68,30)         94.7592         estimate D2E/DX2                !
 ! D137  D(36,31,68,33)        127.0039         estimate D2E/DX2                !
 ! D138  D(40,31,68,15)        167.2575         estimate D2E/DX2                !
 ! D139  D(40,31,68,16)        143.5239         estimate D2E/DX2                !
 ! D140  D(40,31,68,28)         50.3261         estimate D2E/DX2                !
 ! D141  D(40,31,68,29)       -115.6636         estimate D2E/DX2                !
 ! D142  D(40,31,68,30)        -85.0133         estimate D2E/DX2                !
 ! D143  D(40,31,68,33)        -52.7686         estimate D2E/DX2                !
 ! D144  D(28,32,39,42)        134.0967         estimate D2E/DX2                !
 ! D145  D(28,32,39,43)         12.5483         estimate D2E/DX2                !
 ! D146  D(28,32,39,44)       -106.8541         estimate D2E/DX2                !
 ! D147  D(37,32,39,42)         18.7209         estimate D2E/DX2                !
 ! D148  D(37,32,39,43)       -102.8275         estimate D2E/DX2                !
 ! D149  D(37,32,39,44)        137.7701         estimate D2E/DX2                !
 ! D150  D(38,32,39,42)       -102.612          estimate D2E/DX2                !
 ! D151  D(38,32,39,43)        135.8396         estimate D2E/DX2                !
 ! D152  D(38,32,39,44)         16.4372         estimate D2E/DX2                !
 ! D153  D(1,51,53,54)          62.7257         estimate D2E/DX2                !
 ! D154  D(1,51,53,55)         -61.149          estimate D2E/DX2                !
 ! D155  D(1,51,53,64)        -178.528          estimate D2E/DX2                !
 ! D156  D(52,51,53,54)        -58.392          estimate D2E/DX2                !
 ! D157  D(52,51,53,55)        177.7333         estimate D2E/DX2                !
 ! D158  D(52,51,53,64)         60.3544         estimate D2E/DX2                !
 ! D159  D(69,51,53,54)       -175.9242         estimate D2E/DX2                !
 ! D160  D(69,51,53,55)         60.2011         estimate D2E/DX2                !
 ! D161  D(69,51,53,64)        -57.1779         estimate D2E/DX2                !
 ! D162  D(1,51,69,7)         -164.3663         estimate D2E/DX2                !
 ! D163  D(52,51,69,7)         -45.323          estimate D2E/DX2                !
 ! D164  D(53,51,69,7)          67.7715         estimate D2E/DX2                !
 ! D165  D(51,53,64,65)       -123.2587         estimate D2E/DX2                !
 ! D166  D(51,53,64,66)         55.2057         estimate D2E/DX2                !
 ! D167  D(54,53,64,65)         -3.4409         estimate D2E/DX2                !
 ! D168  D(54,53,64,66)        175.0235         estimate D2E/DX2                !
 ! D169  D(55,53,64,65)        117.9193         estimate D2E/DX2                !
 ! D170  D(55,53,64,66)        -63.6164         estimate D2E/DX2                !
 ! D171  D(59,56,58,57)       -178.6816         estimate D2E/DX2                !
 ! D172  D(59,56,58,61)          0.2333         estimate D2E/DX2                !
 ! D173  D(66,56,58,57)          2.1415         estimate D2E/DX2                !
 ! D174  D(66,56,58,61)       -178.9435         estimate D2E/DX2                !
 ! D175  D(58,56,66,7)        -124.7687         estimate D2E/DX2                !
 ! D176  D(58,56,66,64)         -0.3043         estimate D2E/DX2                !
 ! D177  D(58,56,66,67)        118.8196         estimate D2E/DX2                !
 ! D178  D(59,56,66,7)          56.0099         estimate D2E/DX2                !
 ! D179  D(59,56,66,64)       -179.5257         estimate D2E/DX2                !
 ! D180  D(59,56,66,67)        -60.4018         estimate D2E/DX2                !
 ! D181  D(60,57,58,56)        178.0147         estimate D2E/DX2                !
 ! D182  D(60,57,58,61)         -0.9166         estimate D2E/DX2                !
 ! D183  D(65,57,58,56)         -2.3558         estimate D2E/DX2                !
 ! D184  D(65,57,58,61)        178.713          estimate D2E/DX2                !
 ! D185  D(58,57,65,64)          0.4599         estimate D2E/DX2                !
 ! D186  D(60,57,65,64)       -179.8867         estimate D2E/DX2                !
 ! D187  D(53,64,65,57)        179.9944         estimate D2E/DX2                !
 ! D188  D(66,64,65,57)          1.6726         estimate D2E/DX2                !
 ! D189  D(53,64,66,7)         -51.387          estimate D2E/DX2                !
 ! D190  D(53,64,66,56)        179.9707         estimate D2E/DX2                !
 ! D191  D(53,64,66,67)         60.9181         estimate D2E/DX2                !
 ! D192  D(65,64,66,7)         126.9269         estimate D2E/DX2                !
 ! D193  D(65,64,66,56)         -1.7155         estimate D2E/DX2                !
 ! D194  D(65,64,66,67)       -120.7681         estimate D2E/DX2                !
 --------------------------------------------------------------------------------
 Trust Radius=3.00D-01 FncErr=1.00D-07 GrdErr=1.00D-06 EigMax=2.50D+02 EigMin=1.00D-04
 Number of steps in this run=    414 maximum allowed number of steps=    414.
 GradGradGradGradGradGradGradGradGradGradGradGradGradGradGradGradGradGrad

 Leave Link  103 at Fri Feb  7 14:59:44 2025, MaxMem= 82678120448 cpu:               1.3 elap:               0.1
 (Enter /sysapps/ubuntu-applications/gaussian-new/avx/g16/l202.exe)
 Stoichiometry    C22H16F9N4O14S3Yb(2)
 Framework group  C1[X(C22H16F9N4O14S3Yb)]
 Deg. of freedom   201
 Full point group                 C1      NOp   1
 Largest Abelian subgroup         C1      NOp   1
 Largest concise Abelian subgroup C1      NOp   1
                         Standard orientation:                         
 ---------------------------------------------------------------------
 Center     Atomic      Atomic             Coordinates (Angstroms)
 Number     Number       Type             X           Y           Z
 ---------------------------------------------------------------------
      1          6           0       -4.539829    1.127781    0.777562
      2          6           0       -5.292378    1.756541   -0.227574
      3          6           0       -5.979969    2.934536    0.049124
      4          6           0       -5.922445    3.492173    1.331028
      5          6           0       -5.175288    2.868375    2.329316
      6          6           0       -4.480142    1.685778    2.056559
      7          6           0       -1.745580   -1.211316    0.650634
      8          6           0       -1.313444   -0.773052   -0.767139
      9          6           0       -0.571994   -1.078915    1.641099
     10          1           0       -5.327579    1.319325   -1.230378
     11          1           0       -6.563078    3.416060   -0.738100
     12          1           0       -6.462083    4.416199    1.549461
     13          1           0       -5.125136    3.300181    3.330776
     14          1           0       -3.905546    1.224133    2.862192
     15          8           0        0.052366   -0.044909    1.738620
     16          8           0       -0.745876    0.279449   -0.968504
     17          8           0       -1.721144   -1.587006   -1.704302
     18          8           0       -0.399327   -2.139649    2.376428
     19          6           0       -1.442997   -1.225302   -3.071136
     20          6           0        0.732955   -2.124958    3.266204
     21          1           0       -1.711040   -2.096886   -3.675951
     22          1           0       -0.378711   -0.987600   -3.184097
     23          1           0       -2.056400   -0.356569   -3.344836
     24          1           0        0.766165   -3.113897    3.732514
     25          1           0        0.595956   -1.343772    4.025251
     26          1           0        1.641366   -1.927119    2.680396
     27          8           0        3.112922   -0.661586    1.223995
     28          8           0        1.998942   -0.850853   -1.960406
     29          8           0        0.224407    2.871213    0.477886
     30         16           0        0.696345    3.642319   -0.694863
     31         16           0        3.847551    0.474190    1.838481
     32         16           0        1.618367   -2.174727   -1.411201
     33          8           0        1.505014    2.753397   -1.571981
     34          8           0        1.226785    4.966668   -0.448302
     35          8           0        3.104095    1.731195    1.571317
     36          8           0        4.372116    0.279049    3.171249
     37          8           0        0.909597   -1.999251   -0.116886
     38          8           0        0.990948   -3.105461   -2.332550
     39          6           0        3.239922   -2.972995   -0.946706
     40          6           0        5.296308    0.630545    0.722179
     41          6           0       -0.828212    3.953726   -1.674720
     42          9           0        3.145919   -3.510255    0.255718
     43          9           0        4.218910   -2.089516   -0.968103
     44          9           0        3.506464   -3.926862   -1.824905
     45          9           0        4.847826    0.813957   -0.517791
     46          9           0        6.028544   -0.469690    0.757837
     47          9           0        6.044784    1.664718    1.065518
     48          9           0       -1.376833    2.819375   -2.081896
     49          9           0       -0.530732    4.690659   -2.733554
     50          9           0       -1.706906    4.609010   -0.926525
     51          6           0       -3.847426   -0.140672    0.346483
     52          1           0       -3.596813   -0.058893   -0.728400
     53          6           0       -4.626505   -1.495144    0.469287
     54          6           0       -5.821323   -1.496260   -0.389399
     55          6           0       -4.982112   -1.764604    1.878873
     56          6           0       -1.549204   -3.727700    0.127958
     57          6           0       -3.289434   -4.268383   -1.417058
     58          6           0       -2.007517   -4.531272   -0.875174
     59          1           0       -0.563640   -3.859662    0.576493
     60          1           0       -3.699733   -4.853983   -2.241837
     61          1           0       -1.404353   -5.348260   -1.271401
     62          7           0       -6.775472   -1.423763   -1.037571
     63          7           0       -5.232670   -1.978935    2.987092
     64          7           0       -3.688133   -2.554106    0.010642
     65          7           0       -4.084796   -3.304289   -0.963285
     66          6           0       -2.388064   -2.634685    0.674011
     67          1           0       -2.561260   -2.839423    1.751826
     68         70           0        1.518057    0.768692   -0.091738
     69          8           0       -2.685160   -0.289362    1.129157
 ---------------------------------------------------------------------
 Rotational constants (GHZ):           0.0671791           0.0413050           0.0321422
 Leave Link  202 at Fri Feb  7 14:59:44 2025, MaxMem= 82678120448 cpu:               1.2 elap:               0.1
 (Enter /sysapps/ubuntu-applications/gaussian-new/avx/g16/l301.exe)
 General basis read from cards:  (5D, 7F)
 Centers:      10     11     12     13     14     21     22     23     24     25
 Centers:      26     52     59     60     61     67
 S 3 1.00
     Exponent=  1.3010701000D+01 Coefficients=  1.9682158000D-02
     Exponent=  1.9622572000D+00 Coefficients=  1.3796524000D-01
     Exponent=  4.4453796000D-01 Coefficients=  4.7831935000D-01
 S 1 1.00
     Exponent=  1.2194962000D-01 Coefficients=  1.0000000000D+00
 P 1 1.00
     Exponent=  8.0000000000D-01 Coefficients=  1.0000000000D+00
 ****
 Centers:       1      2      3      4      5      6      7      8      9     19
 Centers:      20     39     40     41     51     53     54     55     56     57
 Centers:      58     66
 S 5 1.00
     Exponent=  1.2384016938D+03 Coefficients=  5.4568832082D-03
     Exponent=  1.8629004992D+02 Coefficients=  4.0638409211D-02
     Exponent=  4.2251176346D+01 Coefficients=  1.8025593888D-01
     Exponent=  1.1676557932D+01 Coefficients=  4.6315121755D-01
     Exponent=  3.5930506482D+00 Coefficients=  4.4087173314D-01
 S 1 1.00
     Exponent=  4.0245147363D-01 Coefficients=  1.0000000000D+00
 S 1 1.00
     Exponent=  1.3090182668D-01 Coefficients=  1.0000000000D+00
 P 3 1.00
     Exponent=  9.4680970621D+00 Coefficients=  3.8387871728D-02
     Exponent=  2.0103545142D+00 Coefficients=  2.1117025112D-01
     Exponent=  5.4771004707D-01 Coefficients=  5.1328172114D-01
 P 1 1.00
     Exponent=  1.5268613795D-01 Coefficients=  1.0000000000D+00
 D 1 1.00
     Exponent=  8.0000000000D-01 Coefficients=  1.0000000000D+00
 ****
 Centers:      62     63     64     65
 S 5 1.00
     Exponent=  1.7128415853D+03 Coefficients= -5.3934125305D-03
     Exponent=  2.5764812677D+02 Coefficients= -4.0221581118D-02
     Exponent=  5.8458245853D+01 Coefficients= -1.7931144990D-01
     Exponent=  1.6198367905D+01 Coefficients= -4.6376317823D-01
     Exponent=  5.0052600809D+00 Coefficients= -4.4171422662D-01
 S 1 1.00
     Exponent=  5.8731856571D-01 Coefficients=  1.0000000000D+00
 S 1 1.00
     Exponent=  1.8764592253D-01 Coefficients=  1.0000000000D+00
 P 3 1.00
     Exponent=  1.3571470233D+01 Coefficients= -4.0072398852D-02
     Exponent=  2.9257372874D+00 Coefficients= -2.1807045028D-01
     Exponent=  7.9927750754D-01 Coefficients= -5.1294466049D-01
 P 1 1.00
     Exponent=  2.1954348034D-01 Coefficients=  1.0000000000D+00
 D 1 1.00
     Exponent=  1.0000000000D+00 Coefficients=  1.0000000000D+00
 ****
 Centers:      15     16     17     18     27     28     29     33     34     35
 Centers:      36     37     38     69
 S 5 1.00
     Exponent=  2.2661767785D+03 Coefficients= -5.3431809926D-03
     Exponent=  3.4087010191D+02 Coefficients= -3.9890039230D-02
     Exponent=  7.7363135167D+01 Coefficients= -1.7853911985D-01
     Exponent=  2.1479644940D+01 Coefficients= -4.6427684959D-01
     Exponent=  6.6589433124D+00 Coefficients= -4.4309745172D-01
 S 1 1.00
     Exponent=  8.0975975668D-01 Coefficients=  1.0000000000D+00
 S 1 1.00
     Exponent=  2.5530772234D-01 Coefficients=  1.0000000000D+00
 P 3 1.00
     Exponent=  1.7721504317D+01 Coefficients=  4.3394573193D-02
     Exponent=  3.8635505440D+00 Coefficients=  2.3094120765D-01
     Exponent=  1.0480920883D+00 Coefficients=  5.1375311064D-01
 P 1 1.00
     Exponent=  2.7641544411D-01 Coefficients=  1.0000000000D+00
 D 1 1.00
     Exponent=  1.2000000000D+00 Coefficients=  1.0000000000D+00
 ****
 Centers:      42     43     44     45     46     47     48     49     50
 S 5 1.00
     Exponent=  2.8948325990D+03 Coefficients= -5.3408255515D-03
     Exponent=  4.3541939120D+02 Coefficients= -3.9904258866D-02
     Exponent=  9.8843328866D+01 Coefficients= -1.7912768038D-01
     Exponent=  2.7485198001D+01 Coefficients= -4.6758090825D-01
     Exponent=  8.5405498171D+00 Coefficients= -4.4653131020D-01
 S 1 1.00
     Exponent=  1.0654578038D+00 Coefficients=  1.0000000000D+00
 S 1 1.00
     Exponent=  3.3247346748D-01 Coefficients=  1.0000000000D+00
 P 3 1.00
     Exponent=  2.2696633924D+01 Coefficients= -4.5212874436D-02
     Exponent=  4.9872339257D+00 Coefficients= -2.3754317067D-01
     Exponent=  1.3491613954D+00 Coefficients= -5.1287353587D-01
 P 1 1.00
     Exponent=  3.4829881977D-01 Coefficients=  1.0000000000D+00
 D 1 1.00
     Exponent=  1.4000000000D+00 Coefficients=  1.0000000000D+00
 ****
 Centers:      30     31     32
 S 5 1.00
     Exponent=  9.1849303010D+03 Coefficients= -2.2294387756D-03
     Exponent=  1.3815105503D+03 Coefficients= -1.6683029937D-02
     Exponent=  3.1387147580D+02 Coefficients= -7.5262436116D-02
     Exponent=  8.8053870623D+01 Coefficients= -1.9376827038D-01
     Exponent=  2.7039914905D+01 Coefficients= -1.7718020803D-01
 S 3 1.00
     Exponent=  4.5648731303D+01 Coefficients= -1.0736062573D-01
     Exponent=  4.9664522326D+00 Coefficients=  6.5066293018D-01
     Exponent=  2.0116242047D+00 Coefficients=  5.9712155354D-01
 S 1 1.00
     Exponent=  3.5661077013D-01 Coefficients=  1.0000000000D+00
 S 1 1.00
     Exponent=  1.3507221477D-01 Coefficients=  1.0000000000D+00
 P 5 1.00
     Exponent=  2.6198233439D+02 Coefficients= -9.2729929822D-03
     Exponent=  6.1306894736D+01 Coefficients= -6.6547669241D-02
     Exponent=  1.9103729887D+01 Coefficients= -2.4828595903D-01
     Exponent=  6.6567720378D+00 Coefficients= -4.8703847402D-01
     Exponent=  2.3959635161D+00 Coefficients= -3.9337850312D-01
 P 1 1.00
     Exponent=  6.1776161679D-01 Coefficients=  1.0000000000D+00
 P 1 1.00
     Exponent=  1.6993376871D-01 Coefficients=  1.0000000000D+00
 D 1 1.00
     Exponent=  5.5000000000D-01 Coefficients=  1.0000000000D+00
 ****
 Centers:      68
 S 5 1.00
     Exponent=  9.1972903000D+04 Coefficients=  5.1000000000D-05
     Exponent=  1.3787371000D+04 Coefficients=  3.8600000000D-04
     Exponent=  3.1236135000D+03 Coefficients=  1.8440000000D-03
     Exponent=  8.7147540000D+02 Coefficients=  5.3560000000D-03
     Exponent=  2.5046300000D+02 Coefficients=  8.8590000000D-03
 S 1 1.00
     Exponent=  5.8282700000D+01 Coefficients=  1.0000000000D+00
 S 1 1.00
     Exponent=  4.1630500000D+01 Coefficients=  1.0000000000D+00
 S 1 1.00
     Exponent=  2.0216400000D+01 Coefficients=  1.0000000000D+00
 S 1 1.00
     Exponent=  4.9972000000D+00 Coefficients=  1.0000000000D+00
 S 1 1.00
     Exponent=  2.4822000000D+00 Coefficients=  1.0000000000D+00
 S 1 1.00
     Exponent=  9.1790000000D-01 Coefficients=  1.0000000000D+00
 S 1 1.00
     Exponent=  3.8530000000D-01 Coefficients=  1.0000000000D+00
 S 1 1.00
     Exponent=  6.1400000000D-02 Coefficients=  1.0000000000D+00
 S 1 1.00
     Exponent=  2.5000000000D-02 Coefficients=  1.0000000000D+00
 P 3 1.00
     Exponent=  1.2274108000D+01 Coefficients= -1.5252141000D-01
     Exponent=  1.0695631000D+01 Coefficients= -2.0243492000D-01
     Exponent=  2.0359782000D+00 Coefficients= -1.9621046000D-01
 P 6 1.00
     Exponent=  1.4975567000D+03 Coefficients= -1.0182934000D-03
     Exponent=  3.7504101000D+02 Coefficients= -6.0919401000D-03
     Exponent=  1.2869727000D+02 Coefficients= -1.7077693000D-02
     Exponent=  4.5270759000D+01 Coefficients= -3.5655508000D-02
     Exponent=  1.4906971000D+01 Coefficients=  2.3732226000D-01
     Exponent=  5.6450858000D+00 Coefficients= -3.0559689000D-01
 P 1 1.00
     Exponent=  3.6752106000D+00 Coefficients=  1.0000000000D+00
 P 1 1.00
     Exponent=  1.3296961000D+00 Coefficients=  1.0000000000D+00
 P 1 1.00
     Exponent=  5.5338966000D-01 Coefficients=  1.0000000000D+00
 P 1 1.00
     Exponent=  2.2382350000D-01 Coefficients=  1.0000000000D+00
 P 1 1.00
     Exponent=  6.8350467650D-02 Coefficients=  1.0000000000D+00
 P 1 1.00
     Exponent=  2.5355670803D-02 Coefficients=  1.0000000000D+00
 D 6 1.00
     Exponent=  4.6976060000D+02 Coefficients=  1.9840000000D-03
     Exponent=  1.4261280000D+02 Coefficients=  1.6013000000D-02
     Exponent=  5.5126700000D+01 Coefficients=  6.3153000000D-02
     Exponent=  2.3441500000D+01 Coefficients=  1.3780000000D-01
     Exponent=  9.4951000000D+00 Coefficients=  2.8549800000D-01
     Exponent=  4.5792000000D+00 Coefficients=  4.3830900000D-01
 D 1 1.00
     Exponent=  2.1646000000D+00 Coefficients=  1.0000000000D+00
 D 1 1.00
     Exponent=  9.2380000000D-01 Coefficients=  1.0000000000D+00
 D 1 1.00
     Exponent=  3.1070000000D-01 Coefficients=  1.0000000000D+00
 D 1 1.00
     Exponent=  9.1400000000D-02 Coefficients=  1.0000000000D+00
 F 5 1.00
     Exponent=  1.4202930000D+02 Coefficients=  5.9570000000D-03
     Exponent=  5.1086200000D+01 Coefficients=  5.3180000000D-02
     Exponent=  2.2874100000D+01 Coefficients=  1.7807600000D-01
     Exponent=  1.0502500000D+01 Coefficients=  3.0060000000D-01
     Exponent=  4.7872000000D+00 Coefficients=  3.5034200000D-01
 F 1 1.00
     Exponent=  2.1088000000D+00 Coefficients=  1.0000000000D+00
 F 1 1.00
     Exponent=  8.6090000000D-01 Coefficients=  1.0000000000D+00
 F 1 1.00
     Exponent=  3.0600000000D-01 Coefficients=  1.0000000000D+00
 G 1 1.00
     Exponent=  5.1330000000D-01 Coefficients=  1.0000000000D+00
 ****
 ======================================================================================================
                                       Pseudopotential Parameters
 ======================================================================================================
  Center     Atomic      Valence      Angular      Power
  Number     Number     Electrons     Momentum     of R      Exponent        Coefficient   SO-Coeffient
 ======================================================================================================
    1          6
                                   No pseudopotential on this center.
    2          6
                                   No pseudopotential on this center.
    3          6
                                   No pseudopotential on this center.
    4          6
                                   No pseudopotential on this center.
    5          6
                                   No pseudopotential on this center.
    6          6
                                   No pseudopotential on this center.
    7          6
                                   No pseudopotential on this center.
    8          6
                                   No pseudopotential on this center.
    9          6
                                   No pseudopotential on this center.
   10          1
                                   No pseudopotential on this center.
   11          1
                                   No pseudopotential on this center.
   12          1
                                   No pseudopotential on this center.
   13          1
                                   No pseudopotential on this center.
   14          1
                                   No pseudopotential on this center.
   15          8
                                   No pseudopotential on this center.
   16          8
                                   No pseudopotential on this center.
   17          8
                                   No pseudopotential on this center.
   18          8
                                   No pseudopotential on this center.
   19          6
                                   No pseudopotential on this center.
   20          6
                                   No pseudopotential on this center.
   21          1
                                   No pseudopotential on this center.
   22          1
                                   No pseudopotential on this center.
   23          1
                                   No pseudopotential on this center.
   24          1
                                   No pseudopotential on this center.
   25          1
                                   No pseudopotential on this center.
   26          1
                                   No pseudopotential on this center.
   27          8
                                   No pseudopotential on this center.
   28          8
                                   No pseudopotential on this center.
   29          8
                                   No pseudopotential on this center.
   30         16
                                   No pseudopotential on this center.
   31         16
                                   No pseudopotential on this center.
   32         16
                                   No pseudopotential on this center.
   33          8
                                   No pseudopotential on this center.
   34          8
                                   No pseudopotential on this center.
   35          8
                                   No pseudopotential on this center.
   36          8
                                   No pseudopotential on this center.
   37          8
                                   No pseudopotential on this center.
   38          8
                                   No pseudopotential on this center.
   39          6
                                   No pseudopotential on this center.
   40          6
                                   No pseudopotential on this center.
   41          6
                                   No pseudopotential on this center.
   42          9
                                   No pseudopotential on this center.
   43          9
                                   No pseudopotential on this center.
   44          9
                                   No pseudopotential on this center.
   45          9
                                   No pseudopotential on this center.
   46          9
                                   No pseudopotential on this center.
   47          9
                                   No pseudopotential on this center.
   48          9
                                   No pseudopotential on this center.
   49          9
                                   No pseudopotential on this center.
   50          9
                                   No pseudopotential on this center.
   51          6
                                   No pseudopotential on this center.
   52          1
                                   No pseudopotential on this center.
   53          6
                                   No pseudopotential on this center.
   54          6
                                   No pseudopotential on this center.
   55          6
                                   No pseudopotential on this center.
   56          6
                                   No pseudopotential on this center.
   57          6
                                   No pseudopotential on this center.
   58          6
                                   No pseudopotential on this center.
   59          1
                                   No pseudopotential on this center.
   60          1
                                   No pseudopotential on this center.
   61          1
                                   No pseudopotential on this center.
   62          7
                                   No pseudopotential on this center.
   63          7
                                   No pseudopotential on this center.
   64          7
                                   No pseudopotential on this center.
   65          7
                                   No pseudopotential on this center.
   66          6
                                   No pseudopotential on this center.
   67          1
                                   No pseudopotential on this center.
   68         70           42
                                      H and up 
                                                     2        1.0000000        0.00000000    0.00000000
                                      S - H
                                                     2       32.4244840      891.01377700    0.00000000
                                      P - H
                                                     2       18.6562320      264.03695300    0.00000000
                                      D - H
                                                     2       10.4902220       73.92391900    0.00000000
                                      F - H
                                                     2       20.7741830      -39.59217300    0.00000000
                                      G - H
                                                     2       28.4310280      -34.63863800    0.00000000
   69          8
                                   No pseudopotential on this center.
 ======================================================================================================
 Ernie: Thresh=  0.10000D-02 Tol=  0.10000D-05 Strict=F.
 There are   991 symmetry adapted cartesian basis functions of A   symmetry.
 There are   916 symmetry adapted basis functions of A   symmetry.
   916 basis functions,  1662 primitive gaussians,   991 cartesian basis functions
   230 alpha electrons      229 beta electrons
       nuclear repulsion energy     11681.7327715262 Hartrees.
 IExCor= 7252 DFT=T Ex+Corr=MN15 ExCW=0 ScaHFX=  0.440000
 ScaDFX=  1.000000  1.000000  1.000000  1.000000 ScalE2=  1.000000  1.000000
 IRadAn=      5 IRanWt=     -1 IRanGd=            0 ICorTp=0 IEmpDi=  4
 NAtoms=   69 NActive=   69 NUniq=   69 SFac= 1.00D+00 NAtFMM=   60 NAOKFM=T Big=T
 Integral buffers will be    131072 words long.
 Raffenetti 2 integral format.
 Two-electron integral symmetry is turned on.
 ------------------------------------------------------------------------------
 Polarizable Continuum Model (PCM)
 =================================
 Model                : PCM.
 Atomic radii         : SMD-Coulomb.
 Polarization charges : Total charges.
 Charge compensation  : None.
 Solution method      : On-the-fly selection.
 Cavity type          : VdW (van der Waals Surface) (Alpha=1.000).
 Cavity algorithm     : GePol (No added spheres)
                        Default sphere list used, NSphG=   69.
                        Lebedev-Laikov grids with approx.  5.0 points / Ang**2.
                        Smoothing algorithm: York/Karplus (Gamma=1.0000).
                        Polarization charges: spherical gaussians, with
                                              point-specific exponents (IZeta= 3).
                        Self-potential: point-specific (ISelfS= 7).
                        Self-field    : sphere-specific E.n sum rule (ISelfD= 2).
 1st derivatives      : Analytical E(r).r(x)/FMM algorithm (CHGder, D1EAlg=3).
                        Cavity 1st derivative terms included.
 Solvent              : DiChloroEthane, Eps=  10.125000 Eps(inf)=   2.087447
 ------------------------------------------------------------------------------
 GePol: Number of generator spheres                  =      69
 GePol: Total number of spheres                      =      69
 GePol: Number of exposed spheres                    =      67 ( 97.10%)
 GePol: Number of points                             =    4861
 GePol: Average weight of points                     =       0.13
 GePol: Minimum weight of points                     =   0.52D-11
 GePol: Maximum weight of points                     =    0.21501
 GePol: Number of points with low weight             =     283
 GePol: Fraction of low-weight points (<1% of avg)   =       5.82%
 GePol: Cavity surface area                          =    646.078 Ang**2
 GePol: Cavity volume                                =    776.326 Ang**3
 ------------------------------------------------------------------------------
 Atomic radii for non-electrostatic terms: SMD-CDS.
 ------------------------------------------------------------------------------
 PCM non-electrostatic energy =         0.0064997789 Hartrees.
 Nuclear repulsion after PCM non-electrostatic terms =    11681.7392713052 Hartrees.
 Leave Link  301 at Fri Feb  7 14:59:44 2025, MaxMem= 82678120448 cpu:               7.2 elap:               0.3
 (Enter /sysapps/ubuntu-applications/gaussian-new/avx/g16/l302.exe)
 NPDir=0 NMtPBC=     1 NCelOv=     1 NCel=       1 NClECP=     1 NCelD=      1
         NCelK=      1 NCelE2=     1 NClLst=     1 CellRange=     0.0.
 One-electron integrals computed using PRISM.
 One-electron integral symmetry used in STVInt
   1 Symmetry operations used in ECPInt.
 ECPInt:  NShTT=   77815 NPrTT=  297642 LenC2=   60568 LenP2D=  140523.
 LDataN:  DoStor=T MaxTD1= 9 Len=  602
 NBasis=   916 RedAO= T EigKep=  2.42D-04  NBF=   916
 NBsUse=   916 1.00D-06 EigRej= -1.00D+00 NBFU=   916
 Precomputing XC quadrature grid using
 IXCGrd= 4 IRadAn=           5 IRanWt=          -1 IRanGd=           0 AccXCQ= 0.00D+00.
 Defaulting to unpruned grid for atomic number  70.
 Generated NRdTot=       0 NPtTot=           0 NUsed=           0 NTot=          32
 NSgBfM=   939   939   939   939   939 MxSgAt=    69 MxSgA2=    69.
 Leave Link  302 at Fri Feb  7 14:59:48 2025, MaxMem= 82678120448 cpu:              84.6 elap:               3.5
 (Enter /sysapps/ubuntu-applications/gaussian-new/avx/g16/l303.exe)
 DipDrv:  MaxL=1.
 Leave Link  303 at Fri Feb  7 14:59:48 2025, MaxMem= 82678120448 cpu:               8.6 elap:               0.4
 (Enter /sysapps/ubuntu-applications/gaussian-new/avx/g16/l401.exe)
 ExpMin= 2.50D-02 ExpMax= 9.20D+04 ExpMxC= 1.38D+04 IAcc=3 IRadAn=         5 AccDes= 0.00D+00
 Harris functional with IExCor= 1009 and IRadAn=       5 diagonalized for initial guess.
 HarFok:  IExCor= 1009 AccDes= 0.00D+00 IRadAn=         5 IDoV= 1 UseB2=F ITyADJ=14
 ICtDFT=  3500011 ScaDFX=  1.000000  1.000000  1.000000  1.000000
 Defaulting to unpruned grid for atomic number  70.
 FoFCou: FMM=F IPFlag=           0 FMFlag=      100000 FMFlg1=        2001
         NFxFlg=           0 DoJE=T BraDBF=F KetDBF=T FulRan=T
[...]
     7 C(13)  Bbb    -0.0533    -7.157    -2.554    -2.387  0.5849 -0.3512  0.7312
              Bcc     0.1098    14.738     5.259     4.916  0.4358  0.8963  0.0818
 
              Baa    -0.0052    -0.703    -0.251    -0.234  0.7901 -0.5270  0.3132
     8 C(13)  Bbb    -0.0012    -0.160    -0.057    -0.053  0.0726  0.5878  0.8058
              Bcc     0.0064     0.863     0.308     0.288  0.6087  0.6139 -0.5026
 
              Baa    -0.0041    -0.550    -0.196    -0.183  0.7029 -0.1870 -0.6863
     9 C(13)  Bbb    -0.0023    -0.307    -0.109    -0.102 -0.1845  0.8839 -0.4298
              Bcc     0.0064     0.856     0.306     0.286  0.6869  0.4287  0.5868
 
              Baa    -0.0011    -0.594    -0.212    -0.198  0.8484  0.3654 -0.3831
    10 H(1)   Bbb    -0.0007    -0.380    -0.136    -0.127  0.2467  0.3674  0.8967
              Bcc     0.0018     0.974     0.348     0.325 -0.4684  0.8553 -0.2216
 
              Baa    -0.0004    -0.212    -0.076    -0.071  0.8356  0.5376 -0.1129
    11 H(1)   Bbb    -0.0003    -0.171    -0.061    -0.057  0.1127  0.0335  0.9931
              Bcc     0.0007     0.383     0.137     0.128 -0.5377  0.8425  0.0326
 
              Baa    -0.0005    -0.245    -0.087    -0.082  0.3026 -0.1621  0.9392
    12 H(1)   Bbb    -0.0003    -0.147    -0.053    -0.049  0.7889  0.5955 -0.1514
              Bcc     0.0007     0.392     0.140     0.131 -0.5348  0.7868  0.3081
 
              Baa    -0.0004    -0.232    -0.083    -0.077  0.6503  0.6384 -0.4117
    13 H(1)   Bbb    -0.0003    -0.170    -0.061    -0.057  0.6703 -0.2272  0.7065
              Bcc     0.0008     0.402     0.143     0.134 -0.3575  0.7354  0.5756
 
              Baa    -0.0012    -0.649    -0.231    -0.216  0.9023  0.4153 -0.1158
    14 H(1)   Bbb    -0.0010    -0.532    -0.190    -0.178  0.3604 -0.5790  0.7314
              Bcc     0.0022     1.181     0.421     0.394 -0.2367  0.7016  0.6721
 
              Baa    -0.0070     0.506     0.181     0.169  0.7130 -0.4381 -0.5475
    15 O(17)  Bbb    -0.0068     0.493     0.176     0.165  0.1634  0.8631 -0.4778
              Bcc     0.0138    -0.999    -0.357    -0.333  0.6819  0.2512  0.6869
 
              Baa    -0.0109     0.786     0.281     0.262  0.8243 -0.2973  0.4818
    16 O(17)  Bbb    -0.0073     0.527     0.188     0.176  0.1408  0.9319  0.3342
              Bcc     0.0182    -1.314    -0.469    -0.438 -0.5484 -0.2076  0.8101
 
              Baa    -0.0081     0.587     0.210     0.196  0.3446  0.4581  0.8193
    17 O(17)  Bbb    -0.0047     0.338     0.121     0.113  0.8797 -0.4622 -0.1116
              Bcc     0.0128    -0.925    -0.330    -0.309  0.3276  0.7592 -0.5623
 
              Baa    -0.0056     0.409     0.146     0.136 -0.2283  0.9715 -0.0636
    18 O(17)  Bbb    -0.0005     0.039     0.014     0.013 -0.1635  0.0261  0.9862
              Bcc     0.0062    -0.447    -0.160    -0.149  0.9598  0.2355  0.1529
 
              Baa    -0.0028    -0.379    -0.135    -0.126  0.7476 -0.6584 -0.0876
    19 C(13)  Bbb    -0.0021    -0.278    -0.099    -0.093  0.4526  0.4085  0.7926
              Bcc     0.0049     0.657     0.234     0.219  0.4861  0.6322 -0.6034
 
              Baa    -0.0012    -0.162    -0.058    -0.054 -0.0980  0.9856 -0.1378
    20 C(13)  Bbb    -0.0012    -0.156    -0.056    -0.052 -0.6918  0.0321  0.7213
              Bcc     0.0024     0.318     0.113     0.106  0.7154  0.1660  0.6787
 
              Baa    -0.0022    -1.200    -0.428    -0.400  0.7206 -0.6930  0.0219
    21 H(1)   Bbb    -0.0016    -0.830    -0.296    -0.277  0.5761  0.6161  0.5371
              Bcc     0.0038     2.030     0.724     0.677 -0.3857 -0.3744  0.8432
 
              Baa    -0.0013    -0.716    -0.255    -0.239 -0.0519  0.8169  0.5744
    22 H(1)   Bbb    -0.0012    -0.615    -0.220    -0.205  0.8066 -0.3048  0.5065
              Bcc     0.0025     1.331     0.475     0.444 -0.5889 -0.4896  0.6431
 
              Baa    -0.0013    -0.700    -0.250    -0.234  0.4139  0.5545  0.7219
    23 H(1)   Bbb    -0.0013    -0.691    -0.247    -0.230  0.8724 -0.4682 -0.1406
              Bcc     0.0026     1.391     0.496     0.464  0.2601  0.6880 -0.6775
 
              Baa    -0.0010    -0.539    -0.192    -0.180  0.7303  0.3920 -0.5595
    24 H(1)   Bbb    -0.0009    -0.498    -0.178    -0.166 -0.2769  0.9186  0.2821
              Bcc     0.0019     1.037     0.370     0.346  0.6245 -0.0511  0.7794
 
              Baa    -0.0008    -0.433    -0.154    -0.144  0.6767  0.3955 -0.6210
    25 H(1)   Bbb    -0.0008    -0.412    -0.147    -0.138 -0.4692  0.8817  0.0503
              Bcc     0.0016     0.845     0.302     0.282  0.5674  0.2573  0.7822
 
              Baa    -0.0009    -0.483    -0.172    -0.161  0.2420  0.7890 -0.5648
    26 H(1)   Bbb    -0.0009    -0.457    -0.163    -0.152 -0.5503  0.5910  0.5899
              Bcc     0.0018     0.940     0.335     0.313  0.7992  0.1680  0.5771
 
              Baa    -0.0006     0.043     0.015     0.014 -0.3167  0.0803  0.9451
    27 O(17)  Bbb    -0.0005     0.039     0.014     0.013 -0.2132  0.9649 -0.1535
              Bcc     0.0011    -0.082    -0.029    -0.027  0.9242  0.2501  0.2884
 
              Baa    -0.0014     0.099     0.035     0.033  0.0692  0.6142  0.7861
    28 O(17)  Bbb    -0.0008     0.061     0.022     0.020 -0.6171  0.6455 -0.4500
              Bcc     0.0022    -0.160    -0.057    -0.053  0.7838  0.4540 -0.4237
 
              Baa    -0.0005     0.035     0.012     0.012 -0.0378 -0.0705  0.9968
    29 O(17)  Bbb    -0.0004     0.033     0.012     0.011  0.8382 -0.5452 -0.0068
              Bcc     0.0009    -0.067    -0.024    -0.022  0.5440  0.8353  0.0797
 
              Baa    -0.0003    -0.013    -0.005    -0.004  0.5566 -0.2846  0.7805
    30 S(33)  Bbb    -0.0003    -0.013    -0.005    -0.004  0.6226 -0.4791 -0.6187
              Bcc     0.0006     0.026     0.009     0.009  0.5500  0.8304 -0.0895
 
              Baa    -0.0003    -0.013    -0.005    -0.004 -0.1555 -0.3476  0.9247
    31 S(33)  Bbb    -0.0003    -0.012    -0.004    -0.004 -0.4658  0.8512  0.2416
              Bcc     0.0006     0.026     0.009     0.009  0.8711  0.3932  0.2943
 
              Baa    -0.0020    -0.083    -0.030    -0.028  0.1856  0.2640  0.9465
    32 S(33)  Bbb    -0.0017    -0.068    -0.024    -0.023 -0.3483  0.9184 -0.1878
              Bcc     0.0037     0.151     0.054     0.050  0.9188  0.2948 -0.2624
 
              Baa    -0.0004     0.029     0.010     0.010  0.5164 -0.2555  0.8173
    33 O(17)  Bbb    -0.0004     0.028     0.010     0.009 -0.5536  0.6286  0.5463
              Bcc     0.0008    -0.056    -0.020    -0.019  0.6533  0.7346 -0.1832
 
              Baa    -0.0002     0.015     0.005     0.005  0.6566 -0.3921  0.6443
    34 O(17)  Bbb    -0.0002     0.013     0.004     0.004 -0.5185  0.3857  0.7632
              Bcc     0.0004    -0.027    -0.010    -0.009  0.5477  0.8352 -0.0499
 
              Baa    -0.0003     0.025     0.009     0.008  0.1576 -0.5839  0.7964
    35 O(17)  Bbb    -0.0003     0.022     0.008     0.007 -0.5561  0.6140  0.5602
              Bcc     0.0006    -0.047    -0.017    -0.016  0.8161  0.5311  0.2280
 
              Baa    -0.0002     0.018     0.006     0.006 -0.1843 -0.5791  0.7941
    36 O(17)  Bbb    -0.0002     0.017     0.006     0.006 -0.5108  0.7467  0.4260
              Bcc     0.0005    -0.034    -0.012    -0.011  0.8397  0.3271  0.4335
 
              Baa    -0.0100     0.723     0.258     0.241  0.0462 -0.1890  0.9809
    37 O(17)  Bbb    -0.0093     0.672     0.240     0.224 -0.3232  0.9263  0.1937
              Bcc     0.0193    -1.395    -0.498    -0.465  0.9452  0.3259  0.0183
 
              Baa    -0.0066     0.476     0.170     0.159  0.3059  0.4788  0.8229
    38 O(17)  Bbb    -0.0063     0.455     0.162     0.152 -0.3528  0.8598 -0.3691
              Bcc     0.0129    -0.931    -0.332    -0.311  0.8843  0.1774 -0.4319
 
              Baa    -0.0010    -0.129    -0.046    -0.043  0.1019  0.5584  0.8233
    39 C(13)  Bbb    -0.0008    -0.104    -0.037    -0.035  0.1083  0.8165 -0.5672
              Bcc     0.0017     0.233     0.083     0.078  0.9889 -0.1469 -0.0227
 
              Baa    -0.0002    -0.028    -0.010    -0.009  0.1167 -0.5981  0.7929
    40 C(13)  Bbb    -0.0002    -0.027    -0.010    -0.009 -0.3547  0.7206  0.5958
              Bcc     0.0004     0.056     0.020     0.019  0.9277  0.3508  0.1280
 
              Baa    -0.0003    -0.044    -0.016    -0.015  0.2324  0.1450  0.9618
    41 C(13)  Bbb    -0.0003    -0.043    -0.015    -0.014  0.8999 -0.4072 -0.1561
              Bcc     0.0006     0.087     0.031     0.029  0.3690  0.9017 -0.2251
 
              Baa    -0.0009    -0.433    -0.155    -0.145  0.0242  0.7318  0.6811
    42 F(19)  Bbb    -0.0008    -0.416    -0.149    -0.139 -0.2258 -0.6597  0.7168
              Bcc     0.0017     0.850     0.303     0.283  0.9739 -0.1711  0.1493
 
              Baa    -0.0005    -0.272    -0.097    -0.091  0.0102  0.7147  0.6994
    43 F(19)  Bbb    -0.0005    -0.228    -0.081    -0.076 -0.0057 -0.6994  0.7148
              Bcc     0.0010     0.500     0.178     0.167  0.9999 -0.0113 -0.0030
 
              Baa    -0.0006    -0.318    -0.114    -0.106  0.2805  0.1465  0.9486
    44 F(19)  Bbb    -0.0006    -0.299    -0.107    -0.100  0.1686  0.9654 -0.1989
              Bcc     0.0012     0.617     0.220     0.206  0.9449 -0.2158 -0.2461
 
              Baa    -0.0002    -0.120    -0.043    -0.040  0.2518 -0.5444  0.8001
    45 F(19)  Bbb    -0.0002    -0.115    -0.041    -0.038 -0.3097  0.7379  0.5996
              Bcc     0.0005     0.235     0.084     0.078  0.9169  0.3988 -0.0172
 
              Baa    -0.0002    -0.097    -0.035    -0.032 -0.0061 -0.4964  0.8681
    46 F(19)  Bbb    -0.0002    -0.094    -0.033    -0.031 -0.2523  0.8408  0.4790
              Bcc     0.0004     0.191     0.068     0.064  0.9676  0.2161  0.1304
 
              Baa    -0.0001    -0.073    -0.026    -0.024 -0.0022 -0.3507  0.9365
    47 F(19)  Bbb    -0.0001    -0.071    -0.025    -0.024 -0.4337  0.8442  0.3151
              Bcc     0.0003     0.144     0.051     0.048  0.9010  0.4055  0.1539
 
              Baa    -0.0005    -0.258    -0.092    -0.086  0.1062  0.3086  0.9452
    48 F(19)  Bbb    -0.0005    -0.246    -0.088    -0.082  0.9452 -0.3265  0.0004
              Bcc     0.0010     0.504     0.180     0.168  0.3088  0.8934 -0.3264
 
              Baa    -0.0002    -0.112    -0.040    -0.037  0.1871  0.2656  0.9458
    49 F(19)  Bbb    -0.0002    -0.111    -0.040    -0.037  0.9074 -0.4156 -0.0627
              Bcc     0.0004     0.224     0.080     0.075  0.3764  0.8699 -0.3187
 
              Baa    -0.0003    -0.142    -0.051    -0.047  0.2500  0.0601  0.9664
    50 F(19)  Bbb    -0.0003    -0.138    -0.049    -0.046  0.9326 -0.2832 -0.2236
              Bcc     0.0006     0.280     0.100     0.093  0.2602  0.9572 -0.1268
 
              Baa    -0.0176    -2.357    -0.841    -0.786 -0.0202 -0.1934  0.9809
    51 C(13)  Bbb    -0.0132    -1.777    -0.634    -0.593  0.9300 -0.3637 -0.0525
              Bcc     0.0308     4.134     1.475     1.379  0.3670  0.9112  0.1872
 
              Baa    -0.0043    -2.277    -0.813    -0.760  0.9345  0.1433  0.3259
    52 H(1)   Bbb    -0.0025    -1.313    -0.469    -0.438 -0.3537  0.2702  0.8955
              Bcc     0.0067     3.590     1.281     1.198 -0.0402  0.9521 -0.3032
 
              Baa    -0.0121    -1.622    -0.579    -0.541  0.2432 -0.1352  0.9605
    53 C(13)  Bbb    -0.0013    -0.168    -0.060    -0.056  0.8793  0.4487 -0.1595
              Bcc     0.0133     1.790     0.639     0.597 -0.4094  0.8834  0.2281
 
              Baa    -0.0055    -0.731    -0.261    -0.244  0.4278  0.6955 -0.5773
    54 C(13)  Bbb    -0.0029    -0.389    -0.139    -0.130  0.2247  0.5368  0.8133
              Bcc     0.0084     1.121     0.400     0.374  0.8755 -0.4776  0.0734
 
              Baa    -0.0086    -1.152    -0.411    -0.384  0.4715  0.8809  0.0416
    55 C(13)  Bbb    -0.0040    -0.534    -0.191    -0.178  0.8123 -0.4522  0.3683
              Bcc     0.0126     1.686     0.601     0.562 -0.3432  0.1398  0.9288
 
              Baa    -0.1669   -22.403    -7.994    -7.473 -0.0041  0.6864  0.7272
    56 C(13)  Bbb    -0.1630   -21.874    -7.805    -7.297  0.8937 -0.3237  0.3105
              Bcc     0.3300    44.277    15.799    14.769  0.4486  0.6512 -0.6121
 
              Baa    -0.1245   -16.709    -5.962    -5.573  0.7855 -0.0066  0.6188
    57 C(13)  Bbb    -0.1056   -14.174    -5.057    -4.728 -0.4077  0.7467  0.5256
              Bcc     0.2301    30.882    11.020    10.301  0.4655  0.6651 -0.5839
 
              Baa    -0.0090    -1.205    -0.430    -0.402 -0.4929  0.7200 -0.4886
    58 C(13)  Bbb    -0.0020    -0.272    -0.097    -0.091  0.7570  0.0780 -0.6488
              Bcc     0.0110     1.477     0.527     0.493  0.4290  0.6896  0.5834
 
              Baa    -0.0211   -11.250    -4.014    -3.753 -0.2305  0.7403  0.6315
    59 H(1)   Bbb    -0.0051    -2.741    -0.978    -0.914  0.4598  0.6549 -0.5998
              Bcc     0.0262    13.991     4.992     4.667  0.8576 -0.1521  0.4913
 
              Baa    -0.0180    -9.587    -3.421    -3.198  0.8855 -0.4374  0.1568
    60 H(1)   Bbb    -0.0053    -2.825    -1.008    -0.942  0.4418  0.6882 -0.5754
              Bcc     0.0233    12.412     4.429     4.140  0.1438  0.5788  0.8027
 
              Baa    -0.0051    -2.716    -0.969    -0.906 -0.2714 -0.6718  0.6892
    61 H(1)   Bbb    -0.0042    -2.265    -0.808    -0.756  0.9347 -0.0132  0.3553
              Bcc     0.0093     4.981     1.777     1.662 -0.2296  0.7406  0.6315
 
              Baa    -0.0057    -0.220    -0.078    -0.073 -0.1425  0.6259  0.7667
    62 N(14)  Bbb     0.0024     0.092     0.033     0.031  0.9626  0.2680 -0.0399
              Bcc     0.0033     0.128     0.046     0.043 -0.2305  0.7324 -0.6407
 
              Baa    -0.0067    -0.259    -0.092    -0.086  0.5516  0.7059  0.4444
    63 N(14)  Bbb    -0.0032    -0.122    -0.044    -0.041  0.7809 -0.6243  0.0224
              Bcc     0.0099     0.381     0.136     0.127 -0.2933 -0.3347  0.8955
 
              Baa    -0.4487   -17.306    -6.175    -5.773  0.4433  0.4321  0.7854
    64 N(14)  Bbb    -0.4373   -16.864    -6.018    -5.625  0.8028 -0.5812 -0.1334
              Bcc     0.8860    34.170    12.193    11.398  0.3988  0.6896 -0.6045
 
              Baa    -0.1261    -4.864    -1.736    -1.622  0.9278 -0.0494  0.3699
    65 N(14)  Bbb    -0.1034    -3.986    -1.422    -1.330 -0.2346  0.6937  0.6810
              Bcc     0.2295     8.850     3.158     2.952  0.2902  0.7186 -0.6320
 
              Baa    -0.0222    -2.985    -1.065    -0.996 -0.1940  0.6840  0.7032
    66 C(13)  Bbb    -0.0044    -0.589    -0.210    -0.197  0.8871 -0.1836  0.4235
              Bcc     0.0266     3.574     1.275     1.192  0.4188  0.7059 -0.5712
 
              Baa    -0.0080    -4.243    -1.514    -1.415  0.5554  0.8316 -0.0027
    67 H(1)   Bbb    -0.0031    -1.634    -0.583    -0.545  0.8303 -0.5548 -0.0534
              Bcc     0.0110     5.877     2.097     1.960  0.0459 -0.0274  0.9986
 
              Baa    -0.0018    -0.171    -0.061    -0.057 -0.3070  0.9507  0.0440
    68 Yb(171 Bbb    -0.0003    -0.030    -0.011    -0.010  0.0723 -0.0228  0.9971
              Bcc     0.0021     0.201     0.072     0.067  0.9490  0.3093 -0.0617
 
              Baa    -0.0417     3.019     1.077     1.007  0.8799 -0.4641 -0.1016
    69 O(17)  Bbb    -0.0355     2.568     0.916     0.856  0.1569  0.0821  0.9842
              Bcc     0.0772    -5.587    -1.994    -1.864  0.4484  0.8820 -0.1450
 

 ---------------------------------------------------------------------------------

 No NMR shielding tensors so no spin-rotation constants.
 Leave Link  601 at Sat Feb  8 02:57:31 2025, MaxMem= 82678120448 cpu:              54.9 elap:               2.4
 (Enter /sysapps/ubuntu-applications/gaussian-new/avx/g16/l9999.exe)
 1\1\GINC-ACIDSMN001\FOpt\UMN15\GenECP\C22H16F9N4O14S3Yb1(2)\SELHAJJ1\0
 8-Feb-2025\0\\#P UMN15/genecp scf=(maxcyc=500) opt scrf=(smd,solvent=D
 iChloroEthane)\\Opt\\0,2\C,4.7575558704,1.1947559608,-0.5819532527\C,4
 .7414244045,2.301102096,0.2763309754\C,5.5709704873,3.3919336678,0.017
 2613989\C,6.4075824901,3.3817463056,-1.1017495032\C,6.4159294528,2.281
 0808917,-1.9624331486\C,5.5943995459,1.1831658594,-1.704875229\C,2.587
 8015575,-1.6953357365,-1.3257039333\C,1.2658756003,-1.1206549015,-0.76
 47741782\C,2.3847744345,-2.1855352307,-2.7755277248\H,4.0746807575,2.3
 069887925,1.1430883866\H,5.5564426332,4.2553902711,0.6852872598\H,7.05
 19121253,4.2392293839,-1.3078990433\H,7.0635929477,2.2769042051,-2.841
 4287736\H,5.5941611408,0.3237071904,-2.3785629377\O,1.8492315346,-1.49
 29565597,-3.6136554549\O,0.550490858,-0.380413693,-1.4028066951\O,1.06
 53836297,-1.449130763,0.4849961407\O,2.9048866769,-3.3607884083,-2.988
 2606753\C,-0.1123668541,-0.9272897816,1.1306843999\C,2.706961762,-3.92
 64511427,-4.297678497\H,-0.1791812446,-1.4370538237,2.0967986497\H,-0.
 9963699275,-1.1392073082,0.5174821429\H,0.0007126963,0.1561961481,1.26
 7892623\H,3.1316191153,-4.9338536094,-4.2602882851\H,3.2276279588,-3.3
 142284745,-5.0455144748\H,1.6302612771,-3.9541473259,-4.5155688498\O,-
 0.640373425,-3.1957372434,-4.8134278878\O,-1.9762946886,-2.2006825002,
 -1.7314564806\O,0.1518183235,1.2907973866,-4.056747527\S,-1.1365799119
 ,1.9522883436,-3.7435331684\S,-0.9432017045,-2.5605765346,-6.122438165
 1\S,-1.1157842089,-3.3586532676,-1.395483944\O,-2.0723588026,0.9518455
 042,-3.1656247481\O,-1.6779278422,2.8505615382,-4.7418002839\O,-0.7532
 283628,-1.0935645351,-6.0033299722\O,-0.4249312605,-3.2087543493,-7.30
 60599465\O,0.2138072663,-3.1957483013,-2.0438691427\O,-1.0722115057,-3
 .7624396188,-0.0011495759\C,-1.8903647435,-4.7933098018,-2.2961947801\
 C,-2.7719197253,-2.7082541982,-6.2002569542\C,-0.7459549814,3.04800649
 63,-2.321570326\F,-0.9454152105,-5.5411600197,-2.8358546569\F,-2.71227
 21151,-4.3641086213,-3.2343806628\F,-2.5737157829,-5.5192660003,-1.426
 3683613\F,-3.2848704161,-2.0766756022,-5.1454024796\F,-3.1384100293,-3
 .9778385064,-6.1621089915\F,-3.240357197,-2.1510927593,-7.3034630718\F
 ,-0.335273066,2.3437896584,-1.2783975119\F,-1.8289098159,3.7298498319,
 -1.9784807227\F,0.2081519586,3.8995597831,-2.6678484706\C,3.8819026039
 ,0.014466933,-0.2694579331\H,3.0030517942,0.3402819631,0.3153743972\C,
 4.6164228772,-1.0574303434,0.6403593704\C,4.9481510617,-0.4707402813,1
 .9459292649\C,5.8418307122,-1.5225527784,-0.0410342842\C,2.3083161495,
 -3.9689016191,-0.1297448413\C,2.5177413756,-3.5287212748,2.2116365504\
 C,1.9917925584,-4.3097820517,1.153127266\H,1.9341617932,-4.527442716,-
 0.9878306688\H,2.2755320796,-3.7328832935,3.2563086104\H,1.3433548467,
 -5.15801743,1.3716614516\N,5.230800488,0.0663158567,2.9295630665\N,6.7
 85655964,-1.8862410017,-0.6014626876\N,3.6918785663,-2.1956101974,0.80
 98555557\N,3.3538833088,-2.5141922301,2.0158038157\C,3.1968753218,-2.8
 172464982,-0.4140566286\H,4.0719303989,-3.1820278,-0.9916394912\Yb,-0.
 6059173785,-1.0364196363,-3.5066543318\O,3.5198431254,-0.6542180869,-1
 .4499985611\\Version=ES64L-G16RevA.03\State=2-A\HF=-5368.7879029\S2=0.
 764238\S2-1=0.\S2A=0.750077\RMSD=5.110e-09\RMSF=4.974e-06\Dipole=6.473
 6886,-4.1360964,8.4305353\Quadrupole=-6.6646575,7.4144781,-0.7498206,2
 .564173,-7.9923514,-6.1339141\PG=C01 [X(C22H16F9N4O14S3Yb1)]\\@


 ACCORDING TO HEN3RY, LIFE IS MUCH LIKE A SEWER........
 YOU GET OUT OF IT JUST WHAT YOU PUT INTO IT...........
                         TOM LEHRER - (THE 3 IS SILENT)
 Job cpu time:      11 days 21 hours 45 minutes 56.4 seconds.
 Elapsed time:       0 days 11 hours 57 minutes 28.8 seconds.
 File lengths (MBytes):  RWF=   1352 Int=      0 D2E=      0 Chk=     92 Scr=      8
 Normal termination of Gaussian 16 at Sat Feb  8 02:57:31 2025.
