 Entering Gaussian System, Link 0=/sysapps/ubuntu-applications/gaussian-new/avx/g16//g16
 Input=cycloadduct.in
 Output=cycloadduct.log
 Initial command:
 /sysapps/ubuntu-applications/gaussian-new/avx/g16/l1.exe "/data/temp-scratch/selhajj1/7490276/Gau-486055.inp" -scrdir="/data/temp-scratch/selhajj1/7490276/"
 Entering Link 1 = /sysapps/ubuntu-applications/gaussian-new/avx/g16/l1.exe PID=    486057.
  
 Copyright (c) 1988,1990,1992,1993,1995,1998,2003,2009,2016,
            Gaussian, Inc.  All Rights Reserved.
  
 This is part of the Gaussian(R) 16 program.  It is based on
 the Gaussian(R) 09 system (copyright 2009, Gaussian, Inc.),
 the Gaussian(R) 03 system (copyright 2003, Gaussian, Inc.),
 the Gaussian(R) 98 system (copyright 1998, Gaussian, Inc.),
 the Gaussian(R) 94 system (copyright 1995, Gaussian, Inc.),
 the Gaussian 92(TM) system (copyright 1992, Gaussian, Inc.),
 the Gaussian 90(TM) system (copyright 1990, Gaussian, Inc.),
 the Gaussian 88(TM) system (copyright 1988, Gaussian, Inc.),
 the Gaussian 86(TM) system (copyright 1986, Carnegie Mellon
 University), and the Gaussian 82(TM) system (copyright 1983,
 Carnegie Mellon University). Gaussian is a federally registered
 trademark of Gaussian, Inc.
  
 This software contains proprietary and confidential information,
 including trade secrets, belonging to Gaussian, Inc.
  
 This software is provided under written license and may be
 used, copied, transmitted, or stored only in accord with that
 written license.
  
 The following legend is applicable only to US Government
 contracts under FAR:
  
                    RESTRICTED RIGHTS LEGEND
  
 Use, reproduction and disclosure by the US Government is
 subject to restrictions as set forth in subparagraphs (a)
 and (c) of the Commercial Computer Software - Restricted
 Rights clause in FAR 52.227-19.
  
 Gaussian, Inc.
 340 Quinnipiac St., Bldg. 40, Wallingford CT 06492
  
  
 ---------------------------------------------------------------
 Warning -- This program may not be used in any manner that
 competes with the business of Gaussian, Inc. or will provide
 assistance to any competitor of Gaussian, Inc.  The licensee
 of this program is prohibited from giving any competitor of
 Gaussian, Inc. access to this program.  By using this program,
 the user acknowledges that Gaussian, Inc. is engaged in the
 business of creating and licensing software in the field of
 computational chemistry and represents and warrants to the
 licensee that it is not a competitor of Gaussian, Inc. and that
 it will not use this program in any manner prohibited above.
 ---------------------------------------------------------------
  

 Cite this work as:
 Gaussian 16, Revision A.03,
 M. J. Frisch, G. W. Trucks, H. B. Schlegel, G. E. Scuseria, 
 M. A. Robb, J. R. Cheeseman, G. Scalmani, V. Barone, 
 G. A. Petersson, H. Nakatsuji, X. Li, M. Caricato, A. V. Marenich, 
 J. Bloino, B. G. Janesko, R. Gomperts, B. Mennucci, H. P. Hratchian, 
 J. V. Ortiz, A. F. Izmaylov, J. L. Sonnenberg, D. Williams-Young, 
 F. Ding, F. Lipparini, F. Egidi, J. Goings, B. Peng, A. Petrone, 
 T. Henderson, D. Ranasinghe, V. G. Zakrzewski, J. Gao, N. Rega, 
 G. Zheng, W. Liang, M. Hada, M. Ehara, K. Toyota, R. Fukuda, 
 J. Hasegawa, M. Ishida, T. Nakajima, Y. Honda, O. Kitao, H. Nakai, 
 T. Vreven, K. Throssell, J. A. Montgomery, Jr., J. E. Peralta, 
 F. Ogliaro, M. J. Bearpark, J. J. Heyd, E. N. Brothers, K. N. Kudin, 
 V. N. Staroverov, T. A. Keith, R. Kobayashi, J. Normand, 
 K. Raghavachari, A. P. Rendell, J. C. Burant, S. S. Iyengar, 
 J. Tomasi, M. Cossi, J. M. Millam, M. Klene, C. Adamo, R. Cammi, 
 J. W. Ochterski, R. L. Martin, K. Morokuma, O. Farkas, 
 J. B. Foresman, and D. J. Fox, Gaussian, Inc., Wallingford CT, 2016.
 
 ******************************************
 Gaussian 16:  ES64L-G16RevA.03 25-Dec-2016
                28-Jan-2025 
 ******************************************
 %chk=cycloadduct.chk
 %mem=616Gb
 %nprocshared=24
 Will use up to   24 processors via shared memory.
 ----------------------------------------------------------------------
 #P UMN15/genecp scf=(maxcyc=500) freq scrf=(smd,solvent=DiChloroEthane
 )
 ----------------------------------------------------------------------
 1/10=4,30=1,38=1/1,3;
 2/12=2,17=6,18=5,40=1/2;
 3/5=7,11=2,16=1,17=8,25=1,30=1,70=32201,71=2,72=10,74=-73,116=2,140=1/1,2,3;
 4//1;
 5/5=2,7=500,38=5,53=10,98=1/2;
 8/6=4,10=90,11=11/1;
 11/6=1,8=1,9=11,15=111,16=1/1,2,10;
 10/6=1/2;
 6/7=2,8=2,9=2,10=2,28=1/1;
 7/8=1,10=1,25=1/1,2,3,16;
 1/10=4,30=1/3;
 99//99;
 Leave Link    1 at Tue Jan 28 16:02:50 2025, MaxMem= 82678120448 cpu:              10.4 elap:               0.5
 (Enter /sysapps/ubuntu-applications/gaussian-new/avx/g16/l101.exe)
 ----
 freq
 ----
 Symbolic Z-matrix:
 Charge =  0 Multiplicity = 2
 C                    -4.26557  -0.74763  -0.74117 
 C                    -5.06808  -0.09599  -1.73465 
 C                    -5.97464   0.85436  -1.34032 
 C                    -6.10384   1.16817   0.04149 
 C                    -5.33662   0.49643   1.03518 
 C                    -4.43997  -0.46591   0.65183 
 C                    -3.27222  -1.7616   -1.10732 
 C                    -1.95927  -1.43946  -1.78775 
 O                    -3.03057  -2.02774  -2.45305 
 C                    -0.82695  -2.35428  -1.37076 
 C                    -1.58193  -0.02294  -2.16336 
 H                    -4.938    -0.3747   -2.78064 
 H                    -6.60156   1.36905  -2.06938 
 H                    -6.82135   1.9315    0.34947 
 H                    -5.47237   0.7498    2.08725 
 H                    -3.84254  -1.01802   1.37621 
 H                    -3.20083  -2.61186  -0.41099 
 O                    -0.49299   0.46336  -1.93756 
 O                     0.22617  -1.94955  -0.92232 
 Yb                    0.98343   0.2535    0.03999 
 O                    -1.14011  -3.61646  -1.48896 
 O                    -2.5562    0.61456  -2.75831 
 C                    -0.19154  -4.54641  -0.94418 
 C                    -2.32177   1.99493  -3.0852 
 H                    -0.63029  -5.54088  -1.06864 
 H                    -0.0337   -4.31761   0.1187 
 H                     0.76053  -4.47283  -1.48564 
 H                    -3.29619   2.41466  -3.35496 
 H                    -1.62935   2.05765  -3.935 
 H                    -1.88897   2.51766  -2.22209 
 O                    -0.33286   2.45204   0.218 
 O                     0.51717  -1.51074   1.91156 
 O                     2.7444   -0.50724  -1.58941 
 S                     3.83962  -0.60087  -0.59759 
 S                     0.65282   3.2597   -0.53889 
 S                    -0.95053  -1.42689   1.8044 
 O                     3.354    -0.13381   0.7265 
 O                     5.15175  -0.1493   -1.01025 
 O                     1.7864    2.40211  -0.9605 
 O                     0.12149   4.1864   -1.51995 
 O                    -1.3515   -0.31178   0.9079 
 O                    -1.68359  -2.6705    1.58768 
 C                    -1.46562  -0.84429   3.46892 
 C                     1.40906   4.30993   0.76325 
 C                     4.02078  -2.41201  -0.34886 
 F                    -2.78434  -0.6963    3.51164 
 F                    -0.89359   0.32159   3.72176 
 F                    -1.09981  -1.7212    4.38627 
 F                     1.92314   3.53355   1.71107 
 F                     0.49176   5.09684   1.30572 
 F                     2.37271   5.05795   0.25092 
 F                     2.87818  -2.92937   0.08197 
 F                     4.9672   -2.65604   0.5457 
 F                     4.34968  -2.99494  -1.49318 
 
 ITRead=  0  0  0  0  0  0  0  0  0  0  0  0  0  0  0  0  0  0  0  0
 ITRead=  0  0  0  0  0  0  0  0  0  0  0  0  0  0  0  0  0  0  0  0
 ITRead=  0  0  0  0  0  0  0  0  0  0  0  0  0  0
 MicOpt= -1 -1 -1 -1 -1 -1 -1 -1 -1 -1 -1 -1 -1 -1 -1 -1 -1 -1 -1 -1
 MicOpt= -1 -1 -1 -1 -1 -1 -1 -1 -1 -1 -1 -1 -1 -1 -1 -1 -1 -1 -1 -1
 MicOpt= -1 -1 -1 -1 -1 -1 -1 -1 -1 -1 -1 -1 -1 -1
 NAtoms=     54 NQM=       54 NQMF=       0 NMMI=      0 NMMIF=      0
                NMic=       0 NMicF=      0.
                    Isotopes and Nuclear Properties:
 (Nuclear quadrupole moments (NQMom) in fm**2, nuclear magnetic moments (NMagM)
  in nuclear magnetons)

  Atom         1           2           3           4           5           6           7           8           9          10
 IAtWgt=          12          12          12          12          12          12          12          12          16          12
 AtmWgt=  12.0000000  12.0000000  12.0000000  12.0000000  12.0000000  12.0000000  12.0000000  12.0000000  15.9949146  12.0000000
 NucSpn=           0           0           0           0           0           0           0           0           0           0
 AtZEff=  -0.0000000  -0.0000000  -0.0000000  -0.0000000  -0.0000000  -0.0000000  -0.0000000  -0.0000000  -0.0000000  -0.0000000
 NQMom=    0.0000000   0.0000000   0.0000000   0.0000000   0.0000000   0.0000000   0.0000000   0.0000000   0.0000000   0.0000000
 NMagM=    0.0000000   0.0000000   0.0000000   0.0000000   0.0000000   0.0000000   0.0000000   0.0000000   0.0000000   0.0000000
 AtZNuc=   6.0000000   6.0000000   6.0000000   6.0000000   6.0000000   6.0000000   6.0000000   6.0000000   8.0000000   6.0000000

  Atom        11          12          13          14          15          16          17          18          19          20
 IAtWgt=          12           1           1           1           1           1           1          16          16         174
 AtmWgt=  12.0000000   1.0078250   1.0078250   1.0078250   1.0078250   1.0078250   1.0078250  15.9949146  15.9949146 173.9390000
 NucSpn=           0           1           1           1           1           1           1           0           0           0
 AtZEff=  -0.0000000  -0.0000000  -0.0000000  -0.0000000  -0.0000000  -0.0000000  -0.0000000  -0.0000000  -0.0000000  -0.0000000
 NQMom=    0.0000000   0.0000000   0.0000000   0.0000000   0.0000000   0.0000000   0.0000000   0.0000000   0.0000000   0.0000000
 NMagM=    0.0000000   2.7928460   2.7928460   2.7928460   2.7928460   2.7928460   2.7928460   0.0000000   0.0000000   0.0000000
 AtZNuc=   6.0000000   1.0000000   1.0000000   1.0000000   1.0000000   1.0000000   1.0000000   8.0000000   8.0000000  70.0000000

  Atom        21          22          23          24          25          26          27          28          29          30
 IAtWgt=          16          16          12          12           1           1           1           1           1           1
 AtmWgt=  15.9949146  15.9949146  12.0000000  12.0000000   1.0078250   1.0078250   1.0078250   1.0078250   1.0078250   1.0078250
 NucSpn=           0           0           0           0           1           1           1           1           1           1
 AtZEff=  -0.0000000  -0.0000000  -0.0000000  -0.0000000  -0.0000000  -0.0000000  -0.0000000  -0.0000000  -0.0000000  -0.0000000
 NQMom=    0.0000000   0.0000000   0.0000000   0.0000000   0.0000000   0.0000000   0.0000000   0.0000000   0.0000000   0.0000000
 NMagM=    0.0000000   0.0000000   0.0000000   0.0000000   2.7928460   2.7928460   2.7928460   2.7928460   2.7928460   2.7928460
 AtZNuc=   8.0000000   8.0000000   6.0000000   6.0000000   1.0000000   1.0000000   1.0000000   1.0000000   1.0000000   1.0000000

  Atom        31          32          33          34          35          36          37          38          39          40
 IAtWgt=          16          16          16          32          32          32          16          16          16          16
 AtmWgt=  15.9949146  15.9949146  15.9949146  31.9720718  31.9720718  31.9720718  15.9949146  15.9949146  15.9949146  15.9949146
 NucSpn=           0           0           0           0           0           0           0           0           0           0
 AtZEff=  -0.0000000  -0.0000000  -0.0000000  -0.0000000  -0.0000000  -0.0000000  -0.0000000  -0.0000000  -0.0000000  -0.0000000
 NQMom=    0.0000000   0.0000000   0.0000000   0.0000000   0.0000000   0.0000000   0.0000000   0.0000000   0.0000000   0.0000000
 NMagM=    0.0000000   0.0000000   0.0000000   0.0000000   0.0000000   0.0000000   0.0000000   0.0000000   0.0000000   0.0000000
 AtZNuc=   8.0000000   8.0000000   8.0000000  16.0000000  16.0000000  16.0000000   8.0000000   8.0000000   8.0000000   8.0000000

  Atom        41          42          43          44          45          46          47          48          49          50
 IAtWgt=          16          16          12          12          12          19          19          19          19          19
 AtmWgt=  15.9949146  15.9949146  12.0000000  12.0000000  12.0000000  18.9984032  18.9984032  18.9984032  18.9984032  18.9984032
 NucSpn=           0           0           0           0           0           1           1           1           1           1
 AtZEff=  -0.0000000  -0.0000000  -0.0000000  -0.0000000  -0.0000000  -0.0000000  -0.0000000  -0.0000000  -0.0000000  -0.0000000
 NQMom=    0.0000000   0.0000000   0.0000000   0.0000000   0.0000000   0.0000000   0.0000000   0.0000000   0.0000000   0.0000000
 NMagM=    0.0000000   0.0000000   0.0000000   0.0000000   0.0000000   2.6288670   2.6288670   2.6288670   2.6288670   2.6288670
 AtZNuc=   8.0000000   8.0000000   6.0000000   6.0000000   6.0000000   9.0000000   9.0000000   9.0000000   9.0000000   9.0000000

  Atom        51          52          53          54
 IAtWgt=          19          19          19          19
 AtmWgt=  18.9984032  18.9984032  18.9984032  18.9984032
 NucSpn=           1           1           1           1
 AtZEff=  -0.0000000  -0.0000000  -0.0000000  -0.0000000
 NQMom=    0.0000000   0.0000000   0.0000000   0.0000000
 NMagM=    2.6288670   2.6288670   2.6288670   2.6288670
 AtZNuc=   9.0000000   9.0000000   9.0000000   9.0000000
 Leave Link  101 at Tue Jan 28 16:02:50 2025, MaxMem= 82678120448 cpu:               4.8 elap:               0.2
 (Enter /sysapps/ubuntu-applications/gaussian-new/avx/g16/l103.exe)

 GradGradGradGradGradGradGradGradGradGradGradGradGradGradGradGradGradGrad
 Berny optimization.
 Initialization pass.
 Trust Radius=3.00D-01 FncErr=1.00D-07 GrdErr=1.00D-07 EigMax=2.50D+02 EigMin=1.00D-04
 Number of steps in this run=      2 maximum allowed number of steps=      2.
 GradGradGradGradGradGradGradGradGradGradGradGradGradGradGradGradGradGrad

 Leave Link  103 at Tue Jan 28 16:02:50 2025, MaxMem= 82678120448 cpu:               1.2 elap:               0.1
 (Enter /sysapps/ubuntu-applications/gaussian-new/avx/g16/l202.exe)
 Stoichiometry    C15H12F9O14S3Yb(2)
 Framework group  C1[X(C15H12F9O14S3Yb)]
 Deg. of freedom   156
 Full point group                 C1      NOp   1
 Largest Abelian subgroup         C1      NOp   1
 Largest concise Abelian subgroup C1      NOp   1
                         Standard orientation:                         
 ---------------------------------------------------------------------
 Center     Atomic      Atomic             Coordinates (Angstroms)
 Number     Number       Type             X           Y           Z
 ---------------------------------------------------------------------
      1          6           0       -4.265565   -0.747633   -0.741170
      2          6           0       -5.068082   -0.095988   -1.734646
      3          6           0       -5.974639    0.854357   -1.340317
      4          6           0       -6.103837    1.168172    0.041493
      5          6           0       -5.336623    0.496432    1.035181
      6          6           0       -4.439971   -0.465907    0.651834
      7          6           0       -3.272218   -1.761604   -1.107320
      8          6           0       -1.959271   -1.439459   -1.787752
      9          8           0       -3.030565   -2.027740   -2.453050
     10          6           0       -0.826945   -2.354277   -1.370762
     11          6           0       -1.581926   -0.022944   -2.163357
     12          1           0       -4.938001   -0.374702   -2.780640
     13          1           0       -6.601559    1.369045   -2.069383
     14          1           0       -6.821351    1.931498    0.349466
     15          1           0       -5.472371    0.749801    2.087249
     16          1           0       -3.842541   -1.018022    1.376213
     17          1           0       -3.200829   -2.611861   -0.410989
     18          8           0       -0.492989    0.463361   -1.937560
     19          8           0        0.226166   -1.949552   -0.922317
     20         70           0        0.983432    0.253503    0.039985
     21          8           0       -1.140105   -3.616461   -1.488960
     22          8           0       -2.556197    0.614564   -2.758311
     23          6           0       -0.191537   -4.546412   -0.944175
     24          6           0       -2.321766    1.994926   -3.085195
     25          1           0       -0.630292   -5.540879   -1.068637
     26          1           0       -0.033701   -4.317606    0.118702
     27          1           0        0.760531   -4.472825   -1.485643
     28          1           0       -3.296190    2.414664   -3.354957
     29          1           0       -1.629352    2.057648   -3.935004
     30          1           0       -1.888967    2.517663   -2.222095
     31          8           0       -0.332860    2.452043    0.217999
     32          8           0        0.517166   -1.510736    1.911562
     33          8           0        2.744395   -0.507238   -1.589413
     34         16           0        3.839620   -0.600868   -0.597587
     35         16           0        0.652820    3.259698   -0.538885
     36         16           0       -0.950526   -1.426887    1.804395
     37          8           0        3.354000   -0.133810    0.726500
     38          8           0        5.151749   -0.149299   -1.010255
     39          8           0        1.786397    2.402105   -0.960503
     40          8           0        0.121485    4.186396   -1.519945
     41          8           0       -1.351496   -0.311782    0.907901
     42          8           0       -1.683592   -2.670501    1.587682
     43          6           0       -1.465616   -0.844289    3.468924
     44          6           0        1.409055    4.309929    0.763250
     45          6           0        4.020776   -2.412008   -0.348862
     46          9           0       -2.784337   -0.696303    3.511639
     47          9           0       -0.893587    0.321593    3.721757
     48          9           0       -1.099811   -1.721195    4.386266
     49          9           0        1.923136    3.533550    1.711068
     50          9           0        0.491760    5.096838    1.305715
     51          9           0        2.372711    5.057948    0.250919
     52          9           0        2.878180   -2.929368    0.081965
     53          9           0        4.967196   -2.656043    0.545695
     54          9           0        4.349681   -2.994940   -1.493178
 ---------------------------------------------------------------------
 Rotational constants (GHZ):           0.0809963           0.0625587           0.0512247
 Leave Link  202 at Tue Jan 28 16:02:50 2025, MaxMem= 82678120448 cpu:               1.4 elap:               0.1
 (Enter /sysapps/ubuntu-applications/gaussian-new/avx/g16/l301.exe)
 General basis read from cards:  (5D, 7F)
 Centers:      12     13     14     15     16     17     25     26     27     28
 Centers:      29     30
 S 3 1.00
     Exponent=  1.3010701000D+01 Coefficients=  1.9682158000D-02
     Exponent=  1.9622572000D+00 Coefficients=  1.3796524000D-01
     Exponent=  4.4453796000D-01 Coefficients=  4.7831935000D-01
 S 1 1.00
     Exponent=  1.2194962000D-01 Coefficients=  1.0000000000D+00
 P 1 1.00
     Exponent=  8.0000000000D-01 Coefficients=  1.0000000000D+00
 ****
 Centers:       1      2      3      4      5      6      7      8     10     11
 Centers:      23     24     43     44     45
 S 5 1.00
     Exponent=  1.2384016938D+03 Coefficients=  5.4568832082D-03
     Exponent=  1.8629004992D+02 Coefficients=  4.0638409211D-02
     Exponent=  4.2251176346D+01 Coefficients=  1.8025593888D-01
     Exponent=  1.1676557932D+01 Coefficients=  4.6315121755D-01
     Exponent=  3.5930506482D+00 Coefficients=  4.4087173314D-01
 S 1 1.00
     Exponent=  4.0245147363D-01 Coefficients=  1.0000000000D+00
 S 1 1.00
     Exponent=  1.3090182668D-01 Coefficients=  1.0000000000D+00
 P 3 1.00
     Exponent=  9.4680970621D+00 Coefficients=  3.8387871728D-02
     Exponent=  2.0103545142D+00 Coefficients=  2.1117025112D-01
     Exponent=  5.4771004707D-01 Coefficients=  5.1328172114D-01
 P 1 1.00
     Exponent=  1.5268613795D-01 Coefficients=  1.0000000000D+00
 D 1 1.00
     Exponent=  8.0000000000D-01 Coefficients=  1.0000000000D+00
 ****
 Centers:       9     18     19     21     22     31     32     33     37     38
 Centers:      39     40     41     42
 S 5 1.00
     Exponent=  2.2661767785D+03 Coefficients= -5.3431809926D-03
     Exponent=  3.4087010191D+02 Coefficients= -3.9890039230D-02
     Exponent=  7.7363135167D+01 Coefficients= -1.7853911985D-01
     Exponent=  2.1479644940D+01 Coefficients= -4.6427684959D-01
     Exponent=  6.6589433124D+00 Coefficients= -4.4309745172D-01
 S 1 1.00
     Exponent=  8.0975975668D-01 Coefficients=  1.0000000000D+00
 S 1 1.00
     Exponent=  2.5530772234D-01 Coefficients=  1.0000000000D+00
 P 3 1.00
     Exponent=  1.7721504317D+01 Coefficients=  4.3394573193D-02
     Exponent=  3.8635505440D+00 Coefficients=  2.3094120765D-01
     Exponent=  1.0480920883D+00 Coefficients=  5.1375311064D-01
 P 1 1.00
     Exponent=  2.7641544411D-01 Coefficients=  1.0000000000D+00
 D 1 1.00
     Exponent=  1.2000000000D+00 Coefficients=  1.0000000000D+00
 ****
 Centers:      46     47     48     49     50     51     52     53     54
 S 5 1.00
     Exponent=  2.8948325990D+03 Coefficients= -5.3408255515D-03
     Exponent=  4.3541939120D+02 Coefficients= -3.9904258866D-02
     Exponent=  9.8843328866D+01 Coefficients= -1.7912768038D-01
     Exponent=  2.7485198001D+01 Coefficients= -4.6758090825D-01
     Exponent=  8.5405498171D+00 Coefficients= -4.4653131020D-01
 S 1 1.00
     Exponent=  1.0654578038D+00 Coefficients=  1.0000000000D+00
 S 1 1.00
     Exponent=  3.3247346748D-01 Coefficients=  1.0000000000D+00
 P 3 1.00
     Exponent=  2.2696633924D+01 Coefficients= -4.5212874436D-02
     Exponent=  4.9872339257D+00 Coefficients= -2.3754317067D-01
     Exponent=  1.3491613954D+00 Coefficients= -5.1287353587D-01
 P 1 1.00
     Exponent=  3.4829881977D-01 Coefficients=  1.0000000000D+00
 D 1 1.00
     Exponent=  1.4000000000D+00 Coefficients=  1.0000000000D+00
 ****
 Centers:      34     35     36
 S 5 1.00
     Exponent=  9.1849303010D+03 Coefficients= -2.2294387756D-03
     Exponent=  1.3815105503D+03 Coefficients= -1.6683029937D-02
     Exponent=  3.1387147580D+02 Coefficients= -7.5262436116D-02
     Exponent=  8.8053870623D+01 Coefficients= -1.9376827038D-01
     Exponent=  2.7039914905D+01 Coefficients= -1.7718020803D-01
 S 3 1.00
     Exponent=  4.5648731303D+01 Coefficients= -1.0736062573D-01
     Exponent=  4.9664522326D+00 Coefficients=  6.5066293018D-01
     Exponent=  2.0116242047D+00 Coefficients=  5.9712155354D-01
 S 1 1.00
     Exponent=  3.5661077013D-01 Coefficients=  1.0000000000D+00
 S 1 1.00
     Exponent=  1.3507221477D-01 Coefficients=  1.0000000000D+00
 P 5 1.00
     Exponent=  2.6198233439D+02 Coefficients= -9.2729929822D-03
     Exponent=  6.1306894736D+01 Coefficients= -6.6547669241D-02
     Exponent=  1.9103729887D+01 Coefficients= -2.4828595903D-01
     Exponent=  6.6567720378D+00 Coefficients= -4.8703847402D-01
     Exponent=  2.3959635161D+00 Coefficients= -3.9337850312D-01
 P 1 1.00
     Exponent=  6.1776161679D-01 Coefficients=  1.0000000000D+00
 P 1 1.00
     Exponent=  1.6993376871D-01 Coefficients=  1.0000000000D+00
 D 1 1.00
     Exponent=  5.5000000000D-01 Coefficients=  1.0000000000D+00
 ****
 Centers:      20
 S 5 1.00
     Exponent=  9.1972903000D+04 Coefficients=  5.1000000000D-05
     Exponent=  1.3787371000D+04 Coefficients=  3.8600000000D-04
     Exponent=  3.1236135000D+03 Coefficients=  1.8440000000D-03
     Exponent=  8.7147540000D+02 Coefficients=  5.3560000000D-03
     Exponent=  2.5046300000D+02 Coefficients=  8.8590000000D-03
 S 1 1.00
     Exponent=  5.8282700000D+01 Coefficients=  1.0000000000D+00
 S 1 1.00
     Exponent=  4.1630500000D+01 Coefficients=  1.0000000000D+00
 S 1 1.00
     Exponent=  2.0216400000D+01 Coefficients=  1.0000000000D+00
 S 1 1.00
     Exponent=  4.9972000000D+00 Coefficients=  1.0000000000D+00
 S 1 1.00
     Exponent=  2.4822000000D+00 Coefficients=  1.0000000000D+00
 S 1 1.00
     Exponent=  9.1790000000D-01 Coefficients=  1.0000000000D+00
 S 1 1.00
     Exponent=  3.8530000000D-01 Coefficients=  1.0000000000D+00
 S 1 1.00
     Exponent=  6.1400000000D-02 Coefficients=  1.0000000000D+00
 S 1 1.00
     Exponent=  2.5000000000D-02 Coefficients=  1.0000000000D+00
 P 3 1.00
     Exponent=  1.2274108000D+01 Coefficients= -1.5252141000D-01
     Exponent=  1.0695631000D+01 Coefficients= -2.0243492000D-01
     Exponent=  2.0359782000D+00 Coefficients= -1.9621046000D-01
 P 6 1.00
     Exponent=  1.4975567000D+03 Coefficients= -1.0182934000D-03
     Exponent=  3.7504101000D+02 Coefficients= -6.0919401000D-03
     Exponent=  1.2869727000D+02 Coefficients= -1.7077693000D-02
     Exponent=  4.5270759000D+01 Coefficients= -3.5655508000D-02
     Exponent=  1.4906971000D+01 Coefficients=  2.3732226000D-01
     Exponent=  5.6450858000D+00 Coefficients= -3.0559689000D-01
 P 1 1.00
     Exponent=  3.6752106000D+00 Coefficients=  1.0000000000D+00
 P 1 1.00
     Exponent=  1.3296961000D+00 Coefficients=  1.0000000000D+00
 P 1 1.00
     Exponent=  5.5338966000D-01 Coefficients=  1.0000000000D+00
 P 1 1.00
     Exponent=  2.2382350000D-01 Coefficients=  1.0000000000D+00
 P 1 1.00
     Exponent=  6.8350467650D-02 Coefficients=  1.0000000000D+00
 P 1 1.00
     Exponent=  2.5355670803D-02 Coefficients=  1.0000000000D+00
 D 6 1.00
     Exponent=  4.6976060000D+02 Coefficients=  1.9840000000D-03
     Exponent=  1.4261280000D+02 Coefficients=  1.6013000000D-02
     Exponent=  5.5126700000D+01 Coefficients=  6.3153000000D-02
     Exponent=  2.3441500000D+01 Coefficients=  1.3780000000D-01
     Exponent=  9.4951000000D+00 Coefficients=  2.8549800000D-01
     Exponent=  4.5792000000D+00 Coefficients=  4.3830900000D-01
 D 1 1.00
     Exponent=  2.1646000000D+00 Coefficients=  1.0000000000D+00
 D 1 1.00
     Exponent=  9.2380000000D-01 Coefficients=  1.0000000000D+00
 D 1 1.00
     Exponent=  3.1070000000D-01 Coefficients=  1.0000000000D+00
 D 1 1.00
     Exponent=  9.1400000000D-02 Coefficients=  1.0000000000D+00
 F 5 1.00
     Exponent=  1.4202930000D+02 Coefficients=  5.9570000000D-03
     Exponent=  5.1086200000D+01 Coefficients=  5.3180000000D-02
     Exponent=  2.2874100000D+01 Coefficients=  1.7807600000D-01
     Exponent=  1.0502500000D+01 Coefficients=  3.0060000000D-01
     Exponent=  4.7872000000D+00 Coefficients=  3.5034200000D-01
 F 1 1.00
     Exponent=  2.1088000000D+00 Coefficients=  1.0000000000D+00
 F 1 1.00
     Exponent=  8.6090000000D-01 Coefficients=  1.0000000000D+00
 F 1 1.00
     Exponent=  3.0600000000D-01 Coefficients=  1.0000000000D+00
 G 1 1.00
     Exponent=  5.1330000000D-01 Coefficients=  1.0000000000D+00
 ****
 ======================================================================================================
                                       Pseudopotential Parameters
 ======================================================================================================
  Center     Atomic      Valence      Angular      Power
  Number     Number     Electrons     Momentum     of R      Exponent        Coefficient   SO-Coeffient
 ======================================================================================================
    1          6
                                   No pseudopotential on this center.
    2          6
                                   No pseudopotential on this center.
    3          6
                                   No pseudopotential on this center.
    4          6
                                   No pseudopotential on this center.
    5          6
                                   No pseudopotential on this center.
    6          6
                                   No pseudopotential on this center.
    7          6
                                   No pseudopotential on this center.
    8          6
                                   No pseudopotential on this center.
    9          8
                                   No pseudopotential on this center.
   10          6
                                   No pseudopotential on this center.
   11          6
                                   No pseudopotential on this center.
   12          1
                                   No pseudopotential on this center.
   13          1
                                   No pseudopotential on this center.
   14          1
                                   No pseudopotential on this center.
   15          1
                                   No pseudopotential on this center.
   16          1
                                   No pseudopotential on this center.
   17          1
                                   No pseudopotential on this center.
   18          8
                                   No pseudopotential on this center.
   19          8
                                   No pseudopotential on this center.
   20         70           42
                                      H and up 
                                                     2        1.0000000        0.00000000    0.00000000
                                      S - H
                                                     2       32.4244840      891.01377700    0.00000000
                                      P - H
                                                     2       18.6562320      264.03695300    0.00000000
                                      D - H
                                                     2       10.4902220       73.92391900    0.00000000
                                      F - H
                                                     2       20.7741830      -39.59217300    0.00000000
                                      G - H
                                                     2       28.4310280      -34.63863800    0.00000000
   21          8
                                   No pseudopotential on this center.
   22          8
                                   No pseudopotential on this center.
   23          6
                                   No pseudopotential on this center.
   24          6
                                   No pseudopotential on this center.
   25          1
                                   No pseudopotential on this center.
   26          1
                                   No pseudopotential on this center.
   27          1
                                   No pseudopotential on this center.
   28          1
                                   No pseudopotential on this center.
   29          1
                                   No pseudopotential on this center.
   30          1
                                   No pseudopotential on this center.
   31          8
                                   No pseudopotential on this center.
   32          8
                                   No pseudopotential on this center.
   33          8
                                   No pseudopotential on this center.
   34         16
                                   No pseudopotential on this center.
   35         16
                                   No pseudopotential on this center.
   36         16
                                   No pseudopotential on this center.
   37          8
                                   No pseudopotential on this center.
   38          8
                                   No pseudopotential on this center.
   39          8
                                   No pseudopotential on this center.
   40          8
                                   No pseudopotential on this center.
   41          8
                                   No pseudopotential on this center.
   42          8
                                   No pseudopotential on this center.
   43          6
                                   No pseudopotential on this center.
   44          6
                                   No pseudopotential on this center.
   45          6
                                   No pseudopotential on this center.
   46          9
                                   No pseudopotential on this center.
   47          9
                                   No pseudopotential on this center.
   48          9
                                   No pseudopotential on this center.
   49          9
                                   No pseudopotential on this center.
   50          9
                                   No pseudopotential on this center.
   51          9
                                   No pseudopotential on this center.
   52          9
                                   No pseudopotential on this center.
   53          9
                                   No pseudopotential on this center.
   54          9
                                   No pseudopotential on this center.
 ======================================================================================================
 Ernie: Thresh=  0.10000D-02 Tol=  0.10000D-05 Strict=F.
 There are   806 symmetry adapted cartesian basis functions of A   symmetry.
 There are   742 symmetry adapted basis functions of A   symmetry.
   742 basis functions,  1359 primitive gaussians,   806 cartesian basis functions
   193 alpha electrons      192 beta electrons
       nuclear repulsion energy      8771.7455558612 Hartrees.
 IExCor= 7252 DFT=T Ex+Corr=MN15 ExCW=0 ScaHFX=  0.440000
 ScaDFX=  1.000000  1.000000  1.000000  1.000000 ScalE2=  1.000000  1.000000
 IRadAn=      5 IRanWt=     -1 IRanGd=            0 ICorTp=0 IEmpDi=  4
 NAtoms=   54 NActive=   54 NUniq=   54 SFac= 1.00D+00 NAtFMM=   60 NAOKFM=F Big=F
 Integral buffers will be    131072 words long.
 Raffenetti 2 integral format.
 Two-electron integral symmetry is turned on.
 Force inversion solution in PCM.
 ------------------------------------------------------------------------------
 Polarizable Continuum Model (PCM)
 =================================
 Model                : PCM.
 Atomic radii         : SMD-Coulomb.
 Polarization charges : Total charges.
 Charge compensation  : None.
 Solution method      : Matrix inversion.
 Cavity type          : VdW (van der Waals Surface) (Alpha=1.000).
 Cavity algorithm     : GePol (No added spheres)
                        Default sphere list used, NSphG=   54.
                        Lebedev-Laikov grids with approx.  5.0 points / Ang**2.
                        Smoothing algorithm: York/Karplus (Gamma=1.0000).
                        Polarization charges: spherical gaussians, with
                                              point-specific exponents (IZeta= 3).
                        Self-potential: point-specific (ISelfS= 7).
                        Self-field    : sphere-specific E.n sum rule (ISelfD= 2).
 1st derivatives      : Analytical E(r).r(x)/FMM algorithm (CHGder, D1EAlg=3).
                        Cavity 1st derivative terms included.
 2nd derivatives      : Analytical E(r).r(xy)/FMM algorithm (CHGder, D2EAlg=3).
                        Cavity 2nd derivative terms included.
 Solvent              : DiChloroEthane, Eps=  10.125000 Eps(inf)=   2.087447
 ------------------------------------------------------------------------------
 GePol: Number of generator spheres                  =      54
 GePol: Total number of spheres                      =      54
 GePol: Number of exposed spheres                    =      54 (100.00%)
 GePol: Number of points                             =    3881
 GePol: Average weight of points                     =       0.14
 GePol: Minimum weight of points                     =   0.18D-10
 GePol: Maximum weight of points                     =    0.21501
 GePol: Number of points with low weight             =     221
 GePol: Fraction of low-weight points (<1% of avg)   =       5.69%
 GePol: Cavity surface area                          =    540.548 Ang**2
 GePol: Cavity volume                                =    645.911 Ang**3
 ------------------------------------------------------------------------------
 Atomic radii for non-electrostatic terms: SMD-CDS.
 ------------------------------------------------------------------------------
 PCM non-electrostatic energy =         0.0041955267 Hartrees.
 Nuclear repulsion after PCM non-electrostatic terms =     8771.7497513879 Hartrees.
 Leave Link  301 at Tue Jan 28 16:02:50 2025, MaxMem= 82678120448 cpu:              11.1 elap:               0.5
 (Enter /sysapps/ubuntu-applications/gaussian-new/avx/g16/l302.exe)
 NPDir=0 NMtPBC=     1 NCelOv=     1 NCel=       1 NClECP=     1 NCelD=      1
         NCelK=      1 NCelE2=     1 NClLst=     1 CellRange=     0.0.
 One-electron integrals computed using PRISM.
 One-electron integral symmetry used in STVInt
   1 Symmetry operations used in ECPInt.
 ECPInt:  NShTT=   50086 NPrTT=  191923 LenC2=   40220 LenP2D=   94395.
 LDataN:  DoStor=T MaxTD1= 9 Len=  602
 NBasis=   742 RedAO= T EigKep=  3.05D-04  NBF=   742
 NBsUse=   742 1.00D-06 EigRej= -1.00D+00 NBFU=   742
 Precomputing XC quadrature grid using
 IXCGrd= 4 IRadAn=           5 IRanWt=          -1 IRanGd=           0 AccXCQ= 0.00D+00.
 Defaulting to unpruned grid for atomic number  70.
 Generated NRdTot=       0 NPtTot=           0 NUsed=           0 NTot=          32
 NSgBfM=   775   774   775   775   775 MxSgAt=    54 MxSgA2=    54.
 Leave Link  302 at Tue Jan 28 16:02:52 2025, MaxMem= 82678120448 cpu:              42.0 elap:               1.8
 (Enter /sysapps/ubuntu-applications/gaussian-new/avx/g16/l303.exe)
 DipDrv:  MaxL=1.
 Leave Link  303 at Tue Jan 28 16:02:52 2025, MaxMem= 82678120448 cpu:               3.5 elap:               0.2
 (Enter /sysapps/ubuntu-applications/gaussian-new/avx/g16/l401.exe)
 ExpMin= 2.50D-02 ExpMax= 9.20D+04 ExpMxC= 1.38D+04 IAcc=3 IRadAn=         5 AccDes= 0.00D+00
 Harris functional with IExCor= 1009 and IRadAn=       5 diagonalized for initial guess.
 HarFok:  IExCor= 1009 AccDes= 0.00D+00 IRadAn=         5 IDoV= 1 UseB2=F ITyADJ=14
 ICtDFT=  3500011 ScaDFX=  1.000000  1.000000  1.000000  1.000000
 Defaulting to unpruned grid for atomic number  70.
 FoFCou: FMM=F IPFlag=           0 FMFlag=      100000 FMFlg1=           0
         NFxFlg=           0 DoJE=T BraDBF=F KetDBF=T FulRan=T
         wScrn=  0.000000 ICntrl=       500 IOpCl=  0 I1Cent=   200000004 NGrid=           0
         NMat0=    1 NMatS0=      1 NMatT0=    0 NMatD0=    1 NMtDS0=    0 NMtDT0=    0
 Petite list used in FoFCou.
 Harris En= -4882.37599253225    
 JPrj=0 DoOrth=F DoCkMO=F.
 Initial guess <Sx>= 0.0000 <Sy>= 0.0000 <Sz>= 0.5000 <S**2>= 0.7500 S= 0.5000
 Leave Link  401 at Tue Jan 28 16:02:56 2025, MaxMem= 82678120448 cpu:              92.1 elap:               3.9
 (Enter /sysapps/ubuntu-applications/gaussian-new/avx/g16/l502.exe)
 Integral symmetry usage will be decided dynamically.
 UHF open shell SCF:
 Using DIIS extrapolation, IDIIS=  1040.
 NGot= 82678120448 LenX= 82676793768 LenY= 82676143326
 Requested convergence on RMS density matrix=1.00D-08 within 500 cycles.
 Requested convergence on MAX density matrix=1.00D-06.
 Requested convergence on             energy=1.00D-06.
 No special actions if energy rises.
 Fock matrices will be formed incrementally for  20 cycles.

 Cycle   1  Pass 1  IDiag  1:
 FoFJK:  IHMeth= 1 ICntrl=       0 DoSepK=F KAlg= 0 I1Cent=           0 FoldK=F
 IRaf= 720000000 NMat=       1 IRICut=       1 DoRegI=T DoRafI=F ISym2E= 0 IDoP0=0 IntGTp=1.
 FoFCou: FMM=F IPFlag=           0 FMFlag=      100000 FMFlg1=           0
         NFxFlg=           0 DoJE=F BraDBF=F KetDBF=F FulRan=T
         wScrn=  0.000000 ICntrl=         0 IOpCl=  1 I1Cent=           0 NGrid=           0
         NMat0=    1 NMatS0=      1 NMatT0=    0 NMatD0=    1 NMtDS0=    0 NMtDT0=    0
 Symmetry not used in FoFCou.
 Defaulting to unpruned grid for atomic number  70.
 Defaulting to unpruned grid for atomic number  70.
 Defaulting to unpruned grid for atomic number  70.
 Defaulting to unpruned grid for atomic number  70.
 Defaulting to unpruned grid for atomic number  70.
 Defaulting to unpruned grid for atomic number  70.
 Defaulting to unpruned grid for atomic number  70.
 Defaulting to unpruned grid for atomic number  70.
 Defaulting to unpruned grid for atomic number  70.
 Defaulting to unpruned grid for atomic number  70.
 Defaulting to unpruned grid for atomic number  70.
 Defaulting to unpruned grid for atomic number  70.
 Defaulting to unpruned grid for atomic number  70.
 Defaulting to unpruned grid for atomic number  70.
 Defaulting to unpruned grid for atomic number  70.
 Defaulting to unpruned grid for atomic number  70.
 Defaulting to unpruned grid for atomic number  70.
 Defaulting to unpruned grid for atomic number  70.
 Defaulting to unpruned grid for atomic number  70.
 Defaulting to unpruned grid for atomic number  70.
 Defaulting to unpruned grid for atomic number  70.
 Defaulting to unpruned grid for atomic number  70.
 Defaulting to unpruned grid for atomic number  70.
 Defaulting to unpruned grid for atomic number  70.
 Inv3:  Mode=1 IEnd=    45186483.
 Iteration    1 A*A^-1 deviation from unit magnitude is 9.77D-15 for   3863.
 Iteration    1 A*A^-1 deviation from orthogonality  is 4.38D-15 for   3874   3568.
 Iteration    1 A^-1*A deviation from unit magnitude is 9.10D-15 for   3863.
 Iteration    1 A^-1*A deviation from orthogonality  is 2.18D-15 for   3880   3861.
 E= -4876.85069137856    
 DIIS: error= 2.17D-01 at cycle   1 NSaved=   1.
 NSaved= 1 IEnMin= 1 EnMin= -4876.85069137856     IErMin= 1 ErrMin= 2.17D-01
 ErrMax= 2.17D-01  0.00D+00 EMaxC= 1.00D-01 BMatC= 1.37D+02 BMatP= 1.37D+02
 IDIUse=3 WtCom= 0.00D+00 WtEn= 1.00D+00
 Coeff-Com:  0.100D+01
 Coeff-En:   0.100D+01
 Coeff:      0.100D+01
 Gap=     0.488 Goal=   None    Shift=    0.000
 Gap=     0.031 Goal=   None    Shift=    0.000
 GapD=    0.031 DampG=0.250 DampE=0.125 DampFc=0.1250 IDamp=-1.
 Damping current iteration by 1.25D-01
 RMSDP=1.11D-02 MaxDP=1.00D+00              OVMax= 9.83D-01

 Cycle   2  Pass 1  IDiag  1:
 RMSU=  1.38D-03    CP:  9.92D-01
 E= -4878.22398323086     Delta-E=       -1.373291852296 Rises=F Damp=T
 DIIS: error= 8.41D-02 at cycle   2 NSaved=   2.
 NSaved= 2 IEnMin= 2 EnMin= -4878.22398323086     IErMin= 2 ErrMin= 8.41D-02
 ErrMax= 8.41D-02  0.00D+00 EMaxC= 1.00D-01 BMatC= 2.65D+01 BMatP= 1.37D+02
 IDIUse=3 WtCom= 1.59D-01 WtEn= 8.41D-01
 Coeff-Com: -0.614D+00 0.161D+01
 Coeff-En:   0.244D+00 0.756D+00
 Coeff:      0.108D+00 0.892D+00
 Gap=     0.064 Goal=   None    Shift=    0.000
 Gap=    -0.027 Goal=   None    Shift=    0.000
 RMSDP=3.43D-03 MaxDP=5.12D-01 DE=-1.37D+00 OVMax= 9.17D-01

 Cycle   3  Pass 1  IDiag  1:
 RMSU=  3.41D-03    CP:  9.71D-01  1.01D+00
 E= -4878.63004730842     Delta-E=       -0.406064077557 Rises=F Damp=F
 DIIS: error= 1.27D-01 at cycle   3 NSaved=   3.
 NSaved= 3 IEnMin= 3 EnMin= -4878.63004730842     IErMin= 2 ErrMin= 8.41D-02
 ErrMax= 1.27D-01  0.00D+00 EMaxC= 1.00D-01 BMatC= 5.70D+01 BMatP= 2.65D+01
 IDIUse=2 WtCom= 0.00D+00 WtEn= 1.00D+00
 EnCoef did     4 forward-backward iterations
 Coeff-En:   0.331D+00 0.995D-01 0.569D+00
 Coeff:      0.331D+00 0.995D-01 0.569D+00
 Gap=     0.689 Goal=   None    Shift=    0.000
 Gap=     0.072 Goal=   None    Shift=    0.000
 RMSDP=1.00D-02 MaxDP=2.67D+00 DE=-4.06D-01 OVMax= 1.00D+00

 Cycle   4  Pass 1  IDiag  1:
 RMSU=  9.33D-03    CP:  9.59D-01  2.75D+00  1.85D-01
 E= -4767.50119194247     Delta-E=      111.128855365949 Rises=F Damp=F
 DIIS: error= 5.57D-01 at cycle   4 NSaved=   4.
 NSaved= 4 IEnMin= 3 EnMin= -4878.63004730842     IErMin= 2 ErrMin= 8.41D-02
 ErrMax= 5.57D-01  0.00D+00 EMaxC= 1.00D-01 BMatC= 6.97D+02 BMatP= 2.65D+01
 IDIUse=2 WtCom= 0.00D+00 WtEn= 1.00D+00
 EnCoef did   100 forward-backward iterations
 Coeff-En:   0.422D+00 0.181D-01 0.527D+00 0.329D-01
 Coeff:      0.422D+00 0.181D-01 0.527D+00 0.329D-01
 Gap=     0.018 Goal=   None    Shift=    0.000
 Gap=     0.006 Goal=   None    Shift=    0.000
 RMSDP=9.78D-03 MaxDP=2.70D+00 DE= 1.11D+02 OVMax= 1.00D+00

 Cycle   5  Pass 1  IDiag  1:
 RMSU=  1.49D-03    CP:  9.76D-01  6.14D-01  3.95D-01  1.64D-02
 E= -4881.05448861814     Delta-E=     -113.553296675673 Rises=F Damp=F
 DIIS: error= 4.40D-02 at cycle   5 NSaved=   5.
 NSaved= 5 IEnMin= 5 EnMin= -4881.05448861814     IErMin= 5 ErrMin= 4.40D-02
 ErrMax= 4.40D-02  0.00D+00 EMaxC= 1.00D-01 BMatC= 7.43D+00 BMatP= 2.65D+01
 IDIUse=3 WtCom= 5.60D-01 WtEn= 4.40D-01
 EnCoef did     1 forward-backward iterations
 Coeff-Com:  0.286D+00-0.287D-01 0.290D+00 0.737D-02 0.446D+00
 Coeff-En:   0.984D-01 0.000D+00 0.683D-02 0.000D+00 0.895D+00
 Coeff:      0.203D+00-0.161D-01 0.165D+00 0.413D-02 0.643D+00
 Gap=     0.780 Goal=   None    Shift=    0.000
 Gap=     0.093 Goal=   None    Shift=    0.000
 RMSDP=1.47D-03 MaxDP=2.64D-01 DE=-1.14D+02 OVMax= 9.43D-01

 Cycle   6  Pass 1  IDiag  1:
 RMSU=  6.85D-04    CP:  9.83D-01  5.82D-01  5.85D-01  1.49D-03  2.57D-01
 E= -4880.99956044967     Delta-E=        0.054928168474 Rises=F Damp=F
 DIIS: error= 6.25D-02 at cycle   6 NSaved=   6.
 NSaved= 6 IEnMin= 5 EnMin= -4881.05448861814     IErMin= 5 ErrMin= 4.40D-02
 ErrMax= 6.25D-02  0.00D+00 EMaxC= 1.00D-01 BMatC= 1.33D+01 BMatP= 7.43D+00
 IDIUse=2 WtCom= 0.00D+00 WtEn= 1.00D+00
 Coeff-En:   0.000D+00 0.000D+00 0.000D+00 0.000D+00 0.514D+00 0.486D+00
 Coeff:      0.000D+00 0.000D+00 0.000D+00 0.000D+00 0.514D+00 0.486D+00
 Gap=     0.274 Goal=   None    Shift=    0.000
 Gap=     0.071 Goal=   None    Shift=    0.000
 RMSDP=6.35D-04 MaxDP=8.32D-02 DE= 5.49D-02 OVMax= 4.65D-02

 Cycle   7  Pass 1  IDiag  1:
 RMSU=  4.63D-04    CP:  9.78D-01  5.74D-01  5.25D-01  7.70D-03  4.75D-01
                    CP:  7.53D-01
 E= -4881.59851012212     Delta-E=       -0.598949672456 Rises=F Damp=F
 DIIS: error= 8.98D-03 at cycle   7 NSaved=   7.
 NSaved= 7 IEnMin= 7 EnMin= -4881.59851012212     IErMin= 7 ErrMin= 8.98D-03
 ErrMax= 8.98D-03  0.00D+00 EMaxC= 1.00D-01 BMatC= 3.66D-01 BMatP= 7.43D+00
 IDIUse=3 WtCom= 9.10D-01 WtEn= 8.98D-02
 Coeff-Com: -0.113D+00 0.181D+00-0.894D-02-0.419D-02 0.171D+00 0.159D+00
 Coeff-Com:  0.615D+00
 Coeff-En:   0.000D+00 0.000D+00 0.000D+00 0.000D+00 0.163D+00 0.000D+00
 Coeff-En:   0.837D+00
 Coeff:     -0.103D+00 0.165D+00-0.813D-02-0.381D-02 0.171D+00 0.144D+00
 Coeff:      0.635D+00
 Gap=     0.263 Goal=   None    Shift=    0.000
 Gap=     0.105 Goal=   None    Shift=    0.000
 RMSDP=2.02D-04 MaxDP=1.55D-02 DE=-5.99D-01 OVMax= 1.57D-02

 Cycle   8  Pass 1  IDiag  1:
 RMSU=  1.64D-04    CP:  9.78D-01  5.76D-01  5.04D-01  8.56D-03  5.34D-01
                    CP:  7.95D-01  1.02D+00
 E= -4881.60177170467     Delta-E=       -0.003261582549 Rises=F Damp=F
 DIIS: error= 1.49D-02 at cycle   8 NSaved=   8.
 NSaved= 8 IEnMin= 8 EnMin= -4881.60177170467     IErMin= 7 ErrMin= 8.98D-03
 ErrMax= 1.49D-02  0.00D+00 EMaxC= 1.00D-01 BMatC= 9.10D-01 BMatP= 3.66D-01
 IDIUse=2 WtCom= 0.00D+00 WtEn= 1.00D+00
 EnCoef did     4 forward-backward iterations
 Coeff-En:   0.000D+00 0.000D+00 0.000D+00 0.000D+00 0.172D+00 0.000D+00
 Coeff-En:   0.725D-02 0.821D+00
 Coeff:      0.000D+00 0.000D+00 0.000D+00 0.000D+00 0.172D+00 0.000D+00
 Coeff:      0.725D-02 0.821D+00
 Gap=     0.260 Goal=   None    Shift=    0.000
 Gap=     0.092 Goal=   None    Shift=    0.000
 RMSDP=9.64D-04 MaxDP=2.34D-01 DE=-3.26D-03 OVMax= 9.96D-01

 Cycle   9  Pass 1  IDiag  1:
 RMSU=  4.41D-04    CP:  9.75D-01  6.56D-01  4.70D-01  1.38D-02  8.70D-01
                    CP:  1.05D-01  4.01D-02  1.15D-02
 E= -4881.10248803371     Delta-E=        0.499283670957 Rises=F Damp=F
 DIIS: error= 5.12D-02 at cycle   9 NSaved=   9.
 NSaved= 9 IEnMin= 8 EnMin= -4881.60177170467     IErMin= 7 ErrMin= 8.98D-03
 ErrMax= 5.12D-02  0.00D+00 EMaxC= 1.00D-01 BMatC= 9.69D+00 BMatP= 3.66D-01
 IDIUse=2 WtCom= 0.00D+00 WtEn= 1.00D+00
 Coeff-En:   0.000D+00 0.000D+00 0.000D+00 0.000D+00 0.000D+00 0.000D+00
 Coeff-En:   0.000D+00 0.799D+00 0.201D+00
 Coeff:      0.000D+00 0.000D+00 0.000D+00 0.000D+00 0.000D+00 0.000D+00
 Coeff:      0.000D+00 0.799D+00 0.201D+00
 Gap=     0.217 Goal=   None    Shift=    0.000
 Gap=     0.026 Goal=   None    Shift=    0.000
 RMSDP=9.30D-04 MaxDP=2.24D-01 DE= 4.99D-01 OVMax= 9.98D-01

 Cycle  10  Pass 1  IDiag  1:
 RMSU=  1.71D-04    CP:  9.76D-01  5.92D-01  4.85D-01  9.41D-03  6.15D-01
                    CP:  7.88D-01  1.07D+00  8.40D-01 -5.04D-02
 E= -4881.64820815471     Delta-E=       -0.545720120996 Rises=F Damp=F
 DIIS: error= 2.50D-03 at cycle  10 NSaved=  10.
 NSaved=10 IEnMin=10 EnMin= -4881.64820815471     IErMin=10 ErrMin= 2.50D-03
 ErrMax= 2.50D-03  0.00D+00 EMaxC= 1.00D-01 BMatC= 3.07D-02 BMatP= 3.66D-01
 IDIUse=3 WtCom= 9.75D-01 WtEn= 2.50D-02
 Coeff-Com: -0.492D-02 0.146D-01 0.495D-02-0.114D-03-0.122D+00-0.833D-01
 Coeff-Com: -0.394D+00 0.602D+00 0.148D+00 0.833D+00
 Coeff-En:   0.000D+00 0.000D+00 0.000D+00 0.000D+00 0.000D+00 0.000D+00
 Coeff-En:   0.000D+00 0.000D+00 0.225D-01 0.977D+00
 Coeff:     -0.479D-02 0.143D-01 0.482D-02-0.111D-03-0.119D+00-0.812D-01
 Coeff:     -0.384D+00 0.587D+00 0.145D+00 0.837D+00
 Gap=     0.196 Goal=   None    Shift=    0.000
 Gap=     0.046 Goal=   None    Shift=    0.000
 RMSDP=1.40D-04 MaxDP=1.16D-02 DE=-5.46D-01 OVMax= 1.34D-02

 Cycle  11  Pass 1  IDiag  1:
 RMSU=  5.84D-05    CP:  9.76D-01  5.97D-01  4.80D-01  1.02D-02  6.37D-01
                    CP:  8.08D-01  1.16D+00  1.39D+00  9.33D-02  8.93D-01
 E= -4881.65327909951     Delta-E=       -0.005070944799 Rises=F Damp=F
 DIIS: error= 1.84D-03 at cycle  11 NSaved=  11.
 NSaved=11 IEnMin=11 EnMin= -4881.65327909951     IErMin=11 ErrMin= 1.84D-03
 ErrMax= 1.84D-03  0.00D+00 EMaxC= 1.00D-01 BMatC= 1.50D-02 BMatP= 3.07D-02
 IDIUse=3 WtCom= 9.82D-01 WtEn= 1.84D-02
 Coeff-Com:  0.406D-02-0.355D-02 0.508D-02 0.116D-03-0.393D-01-0.331D-01
 Coeff-Com: -0.186D+00 0.144D+00 0.477D-01 0.341D+00 0.720D+00
 Coeff-En:   0.000D+00 0.000D+00 0.000D+00 0.000D+00 0.000D+00 0.000D+00
 Coeff-En:   0.000D+00 0.000D+00 0.000D+00 0.000D+00 0.100D+01
 Coeff:      0.399D-02-0.349D-02 0.499D-02 0.114D-03-0.386D-01-0.325D-01
 Coeff:     -0.183D+00 0.141D+00 0.469D-01 0.335D+00 0.726D+00
 Gap=     0.179 Goal=   None    Shift=    0.000
 Gap=     0.040 Goal=   None    Shift=    0.000
 RMSDP=4.90D-05 MaxDP=5.40D-03 DE=-5.07D-03 OVMax= 9.44D-03

 Cycle  12  Pass 1  IDiag  1:
 RMSU=  3.31D-05    CP:  9.76D-01  6.00D-01  4.77D-01  1.03D-02  6.50D-01
                    CP:  8.04D-01  1.17D+00  1.44D+00  8.84D-02  1.04D+00
                    CP:  8.73D-01
 E= -4881.65418294670     Delta-E=       -0.000903847191 Rises=F Damp=F
 DIIS: error= 2.46D-04 at cycle  12 NSaved=  12.
 NSaved=12 IEnMin=12 EnMin= -4881.65418294670     IErMin=12 ErrMin= 2.46D-04
 ErrMax= 2.46D-04  0.00D+00 EMaxC= 1.00D-01 BMatC= 5.01D-04 BMatP= 1.50D-02
 IDIUse=3 WtCom= 9.98D-01 WtEn= 2.46D-03
 Coeff-Com:  0.243D-02-0.337D-02 0.169D-02 0.355D-04 0.141D-02-0.396D-02
 Coeff-Com: -0.244D-01-0.163D-01 0.668D-03 0.249D-01 0.391D+00 0.626D+00
 Coeff-En:   0.000D+00 0.000D+00 0.000D+00 0.000D+00 0.000D+00 0.000D+00
 Coeff-En:   0.000D+00 0.000D+00 0.000D+00 0.000D+00 0.000D+00 0.100D+01
 Coeff:      0.243D-02-0.336D-02 0.169D-02 0.354D-04 0.140D-02-0.395D-02
 Coeff:     -0.244D-01-0.162D-01 0.666D-03 0.248D-01 0.390D+00 0.627D+00
 Gap=     0.179 Goal=   None    Shift=    0.000
 Gap=     0.043 Goal=   None    Shift=    0.000
 RMSDP=2.05D-05 MaxDP=1.56D-03 DE=-9.04D-04 OVMax= 8.67D-03

 Cycle  13  Pass 1  IDiag  1:
 RMSU=  1.63D-05    CP:  9.76D-01  6.00D-01  4.77D-01  1.04D-02  6.51D-01
                    CP:  8.04D-01  1.17D+00  1.45D+00  9.34D-02  1.04D+00
                    CP:  1.08D+00  9.61D-01
 E= -4881.65427453686     Delta-E=       -0.000091590160 Rises=F Damp=F
 DIIS: error= 2.54D-04 at cycle  13 NSaved=  13.
 NSaved=13 IEnMin=13 EnMin= -4881.65427453686     IErMin=12 ErrMin= 2.46D-04
 ErrMax= 2.54D-04  0.00D+00 EMaxC= 1.00D-01 BMatC= 3.29D-04 BMatP= 5.01D-04
 IDIUse=3 WtCom= 9.98D-01 WtEn= 2.46D-03
 Coeff-Com:  0.190D-02-0.261D-02 0.692D-03 0.364D-04 0.191D-02-0.149D-02
 Coeff-Com: -0.545D-02-0.527D-02-0.143D-02-0.676D-03 0.160D+00 0.319D+00
 Coeff-Com:  0.534D+00
 Coeff-En:   0.000D+00 0.000D+00 0.000D+00 0.000D+00 0.000D+00 0.000D+00
 Coeff-En:   0.000D+00 0.000D+00 0.000D+00 0.000D+00 0.000D+00 0.000D+00
 Coeff-En:   0.100D+01
 Coeff:      0.190D-02-0.260D-02 0.690D-03 0.363D-04 0.191D-02-0.149D-02
 Coeff:     -0.544D-02-0.526D-02-0.142D-02-0.674D-03 0.160D+00 0.318D+00
 Coeff:      0.535D+00
 Gap=     0.179 Goal=   None    Shift=    0.000
 Gap=     0.044 Goal=   None    Shift=    0.000
 RMSDP=1.01D-05 MaxDP=9.97D-04 DE=-9.16D-05 OVMax= 5.81D-03

 Cycle  14  Pass 1  IDiag  1:
 RMSU=  6.30D-06    CP:  9.76D-01  6.00D-01  4.77D-01  1.04D-02  6.51D-01
                    CP:  8.03D-01  1.17D+00  1.45D+00  9.37D-02  1.04D+00
                    CP:  1.10D+00  1.16D+00  1.23D+00
 E= -4881.65429678839     Delta-E=       -0.000022251530 Rises=F Damp=F
 DIIS: error= 2.40D-04 at cycle  14 NSaved=  14.
 NSaved=14 IEnMin=14 EnMin= -4881.65429678839     IErMin=14 ErrMin= 2.40D-04
 ErrMax= 2.40D-04  0.00D+00 EMaxC= 1.00D-01 BMatC= 2.61D-04 BMatP= 3.29D-04
 IDIUse=3 WtCom= 9.98D-01 WtEn= 2.40D-03
 Coeff-Com:  0.899D-03-0.117D-02 0.150D-03 0.247D-04-0.300D-03-0.136D-02
 Coeff-Com: -0.347D-02 0.157D-01 0.601D-04 0.359D-02 0.177D-01 0.201D-01
 Coeff-Com:  0.179D+00 0.769D+00
 Coeff-En:   0.000D+00 0.000D+00 0.000D+00 0.000D+00 0.000D+00 0.000D+00
 Coeff-En:   0.000D+00 0.000D+00 0.000D+00 0.000D+00 0.000D+00 0.000D+00
 Coeff-En:   0.000D+00 0.100D+01
 Coeff:      0.896D-03-0.117D-02 0.150D-03 0.247D-04-0.299D-03-0.135D-02
 Coeff:     -0.346D-02 0.157D-01 0.600D-04 0.358D-02 0.176D-01 0.200D-01
 Coeff:      0.179D+00 0.769D+00
 Gap=     0.181 Goal=   None    Shift=    0.000
 Gap=     0.045 Goal=   None    Shift=    0.000
 RMSDP=1.08D-05 MaxDP=1.17D-03 DE=-2.23D-05 OVMax= 6.68D-03

 Cycle  15  Pass 1  IDiag  1:
 RMSU=  2.60D-06    CP:  9.76D-01  6.00D-01  4.77D-01  1.04D-02  6.50D-01
                    CP:  8.02D-01  1.17D+00  1.45D+00  9.47D-02  1.04D+00
                    CP:  1.13D+00  1.34D+00  1.70D+00  1.48D+00
 E= -4881.65431809474     Delta-E=       -0.000021306350 Rises=F Damp=F
 DIIS: error= 1.59D-04 at cycle  15 NSaved=  15.
 NSaved=15 IEnMin=15 EnMin= -4881.65431809474     IErMin=15 ErrMin= 1.59D-04
 ErrMax= 1.59D-04  0.00D+00 EMaxC= 1.00D-01 BMatC= 1.14D-04 BMatP= 2.61D-04
 IDIUse=3 WtCom= 9.98D-01 WtEn= 1.59D-03
 Coeff-Com:  0.244D-04-0.392D-04-0.547D-04 0.657D-05-0.131D-02-0.802D-03
 Coeff-Com: -0.409D-02 0.186D-01 0.102D-02 0.939D-02-0.265D-01-0.921D-01
 Coeff-Com: -0.145D+00 0.234D+00 0.101D+01
 Coeff-En:   0.000D+00 0.000D+00 0.000D+00 0.000D+00 0.000D+00 0.000D+00
 Coeff-En:   0.000D+00 0.000D+00 0.000D+00 0.000D+00 0.000D+00 0.000D+00
 Coeff-En:   0.000D+00 0.000D+00 0.100D+01
 Coeff:      0.244D-04-0.391D-04-0.546D-04 0.656D-05-0.131D-02-0.800D-03
 Coeff:     -0.408D-02 0.186D-01 0.101D-02 0.938D-02-0.264D-01-0.919D-01
 Coeff:     -0.145D+00 0.234D+00 0.101D+01
 Gap=     0.183 Goal=   None    Shift=    0.000
 Gap=     0.047 Goal=   None    Shift=    0.000
 RMSDP=1.32D-05 MaxDP=1.42D-03 DE=-2.13D-05 OVMax= 9.75D-03

 Cycle  16  Pass 1  IDiag  1:
 RMSU=  1.82D-06    CP:  9.76D-01  6.00D-01  4.78D-01  1.04D-02  6.49D-01
                    CP:  8.01D-01  1.17D+00  1.44D+00  9.56D-02  1.03D+00
                    CP:  1.17D+00  1.54D+00  2.26D+00  2.28D+00  1.76D+00
 E= -4881.65433552296     Delta-E=       -0.000017428223 Rises=F Damp=F
 DIIS: error= 8.14D-05 at cycle  16 NSaved=  16.
 NSaved=16 IEnMin=16 EnMin= -4881.65433552296     IErMin=16 ErrMin= 8.14D-05
 ErrMax= 8.14D-05  0.00D+00 EMaxC= 1.00D-01 BMatC= 3.09D-05 BMatP= 1.14D-04
 IDIUse=1 WtCom= 1.00D+00 WtEn= 0.00D+00
 Coeff-Com: -0.275D-03 0.329D-03-0.204D-04-0.391D-05-0.959D-03-0.799D-04
 Coeff-Com: -0.363D-02 0.964D-02 0.817D-03 0.956D-02-0.172D-01-0.636D-01
 Coeff-Com: -0.169D+00-0.196D+00 0.610D+00 0.821D+00
 Coeff:     -0.275D-03 0.329D-03-0.204D-04-0.391D-05-0.959D-03-0.799D-04
 Coeff:     -0.363D-02 0.964D-02 0.817D-03 0.956D-02-0.172D-01-0.636D-01
 Coeff:     -0.169D+00-0.196D+00 0.610D+00 0.821D+00
 Gap=     0.184 Goal=   None    Shift=    0.000
 Gap=     0.047 Goal=   None    Shift=    0.000
 RMSDP=1.16D-05 MaxDP=1.21D-03 DE=-1.74D-05 OVMax= 9.47D-03

 Cycle  17  Pass 1  IDiag  1:
 RMSU=  1.08D-06    CP:  9.76D-01  6.00D-01  4.78D-01  1.04D-02  6.48D-01
                    CP:  7.99D-01  1.16D+00  1.44D+00  9.62D-02  1.03D+00
                    CP:  1.20D+00  1.73D+00  2.74D+00  2.97D+00  2.74D+00
                    CP:  1.54D+00
 E= -4881.65434497694     Delta-E=       -0.000009453977 Rises=F Damp=F
 DIIS: error= 4.88D-05 at cycle  17 NSaved=  17.
 NSaved=17 IEnMin=17 EnMin= -4881.65434497694     IErMin=17 ErrMin= 4.88D-05
 ErrMax= 4.88D-05  0.00D+00 EMaxC= 1.00D-01 BMatC= 1.14D-05 BMatP= 3.09D-05
 IDIUse=1 WtCom= 1.00D+00 WtEn= 0.00D+00
 Coeff-Com: -0.104D-03 0.105D-03 0.520D-04-0.170D-05-0.503D-03 0.220D-03
 Coeff-Com: -0.285D-02 0.206D-02 0.427D-03 0.739D-02-0.128D-02-0.119D-01
 Coeff-Com: -0.577D-01-0.198D+00 0.297D-01 0.372D+00 0.861D+00
 Coeff:     -0.104D-03 0.105D-03 0.520D-04-0.170D-05-0.503D-03 0.220D-03
 Coeff:     -0.285D-02 0.206D-02 0.427D-03 0.739D-02-0.128D-02-0.119D-01
 Coeff:     -0.577D-01-0.198D+00 0.297D-01 0.372D+00 0.861D+00
 Gap=     0.185 Goal=   None    Shift=    0.000
 Gap=     0.048 Goal=   None    Shift=    0.000
 RMSDP=9.12D-06 MaxDP=9.40D-04 DE=-9.45D-06 OVMax= 8.02D-03

 Cycle  18  Pass 1  IDiag  1:
 RMSU=  4.01D-06    CP:  9.76D-01  6.00D-01  4.78D-01  1.04D-02  6.47D-01
                    CP:  7.98D-01  1.16D+00  1.43D+00  9.67D-02  1.03D+00
                    CP:  1.22D+00  1.86D+00  3.00D+00  3.00D+00  3.00D+00
                    CP:  2.33D+00  1.73D+00
 E= -4881.65434960487     Delta-E=       -0.000004627929 Rises=F Damp=F
 DIIS: error= 4.87D-05 at cycle  18 NSaved=  18.
 NSaved=18 IEnMin=18 EnMin= -4881.65434960487     IErMin=18 ErrMin= 4.87D-05
 ErrMax= 4.87D-05  0.00D+00 EMaxC= 1.00D-01 BMatC= 1.09D-05 BMatP= 1.14D-05
 IDIUse=1 WtCom= 1.00D+00 WtEn= 0.00D+00
 Coeff-Com:  0.141D-03-0.190D-03 0.873D-04 0.399D-05-0.292D-03 0.512D-04
 Coeff-Com: -0.219D-02-0.346D-04 0.229D-03 0.486D-02 0.913D-02 0.190D-01
 Coeff-Com:  0.323D-01-0.529D-01-0.231D+00-0.207D+00 0.168D+00 0.126D+01
 Coeff:      0.141D-03-0.190D-03 0.873D-04 0.399D-05-0.292D-03 0.512D-04
 Coeff:     -0.219D-02-0.346D-04 0.229D-03 0.486D-02 0.913D-02 0.190D-01
 Coeff:      0.323D-01-0.529D-01-0.231D+00-0.207D+00 0.168D+00 0.126D+01
 Gap=     0.186 Goal=   None    Shift=    0.000
 Gap=     0.048 Goal=   None    Shift=    0.000
 RMSDP=1.09D-05 MaxDP=1.12D-03 DE=-4.63D-06 OVMax= 9.99D-03

 Cycle  19  Pass 1  IDiag  1:
 RMSU=  4.18D-06    CP:  9.76D-01  6.00D-01  4.78D-01  1.04D-02  6.47D-01
                    CP:  7.97D-01  1.16D+00  1.42D+00  9.72D-02  1.03D+00
                    CP:  1.24D+00  2.03D+00  3.00D+00  3.00D+00  3.00D+00
                    CP:  3.00D+00  3.00D+00  2.91D+00
 E= -4881.65435276491     Delta-E=       -0.000003160043 Rises=F Damp=F
 DIIS: error= 4.29D-05 at cycle  19 NSaved=  19.
 NSaved=19 IEnMin=19 EnMin= -4881.65435276491     IErMin=19 ErrMin= 4.29D-05
 ErrMax= 4.29D-05  0.00D+00 EMaxC= 1.00D-01 BMatC= 8.15D-06 BMatP= 1.09D-05
 IDIUse=1 WtCom= 1.00D+00 WtEn= 0.00D+00
 Coeff-Com:  0.497D-04-0.696D-04 0.397D-04 0.143D-05-0.225D-03-0.260D-03
 Coeff-Com: -0.160D-02 0.381D-02 0.191D-03 0.292D-02 0.496D-02 0.145D-02
 Coeff-Com: -0.819D-02-0.222D-01 0.638D-01 0.644D-02-0.412D+00 0.193D+00
 Coeff-Com:  0.117D+01
 Coeff:      0.497D-04-0.696D-04 0.397D-04 0.143D-05-0.225D-03-0.260D-03
 Coeff:     -0.160D-02 0.381D-02 0.191D-03 0.292D-02 0.496D-02 0.145D-02
 Coeff:     -0.819D-02-0.222D-01 0.638D-01 0.644D-02-0.412D+00 0.193D+00
 Coeff:      0.117D+01
 Gap=     0.187 Goal=   None    Shift=    0.000
 Gap=     0.048 Goal=   None    Shift=    0.000
 RMSDP=4.54D-06 MaxDP=4.87D-04 DE=-3.16D-06 OVMax= 4.06D-03

 Cycle  20  Pass 1  IDiag  1:
 RMSU=  3.07D-06    CP:  9.76D-01  5.99D-01  4.78D-01  1.04D-02  6.46D-01
                    CP:  7.97D-01  1.16D+00  1.42D+00  9.71D-02  1.03D+00
                    CP:  1.25D+00  2.08D+00  3.00D+00  3.00D+00  3.00D+00
                    CP:  3.00D+00  3.00D+00  3.00D+00  1.41D+00
 E= -4881.65435369618     Delta-E=       -0.000000931264 Rises=F Damp=F
 DIIS: error= 1.02D-05 at cycle  20 NSaved=  20.
 NSaved=20 IEnMin=20 EnMin= -4881.65435369618     IErMin=20 ErrMin= 1.02D-05
 ErrMax= 1.02D-05  0.00D+00 EMaxC= 1.00D-01 BMatC= 5.30D-07 BMatP= 8.15D-06
 IDIUse=1 WtCom= 1.00D+00 WtEn= 0.00D+00
 Coeff-Com: -0.339D-04 0.356D-04 0.330D-06-0.106D-05-0.852D-04-0.173D-03
 Coeff-Com: -0.595D-03 0.295D-02 0.905D-04 0.986D-03 0.245D-03-0.663D-02
 Coeff-Com: -0.229D-01-0.244D-01 0.137D+00 0.156D+00-0.211D+00-0.421D+00
 Coeff-Com:  0.655D+00 0.734D+00
 Coeff:     -0.339D-04 0.356D-04 0.330D-06-0.106D-05-0.852D-04-0.173D-03
 Coeff:     -0.595D-03 0.295D-02 0.905D-04 0.986D-03 0.245D-03-0.663D-02
 Coeff:     -0.229D-01-0.244D-01 0.137D+00 0.156D+00-0.211D+00-0.421D+00
 Coeff:      0.655D+00 0.734D+00
 Gap=     0.187 Goal=   None    Shift=    0.000
 Gap=     0.048 Goal=   None    Shift=    0.000
 RMSDP=8.01D-07 MaxDP=9.61D-05 DE=-9.31D-07 OVMax= 5.78D-04

 Cycle  21  Pass 1  IDiag  1:
 Restarting incremental Fock formation.
 E= -4881.65435379138     Delta-E=       -0.000000095206 Rises=F Damp=F
 DIIS: error= 3.86D-06 at cycle  21 NSaved=  20.
 NSaved=20 IEnMin=20 EnMin= -4881.65435379138     IErMin=20 ErrMin= 3.86D-06
 ErrMax= 3.86D-06  0.00D+00 EMaxC= 1.00D-01 BMatC= 8.57D-08 BMatP= 5.30D-07
 IDIUse=1 WtCom= 1.00D+00 WtEn= 0.00D+00
 Coeff-Com: -0.538D-05 0.523D-05-0.156D-05 0.329D-06-0.278D-04-0.237D-04
 Coeff-Com:  0.514D-03 0.103D-04-0.789D-05-0.116D-03-0.109D-02-0.198D-02
 Coeff-Com: -0.201D-02 0.308D-01 0.449D-01-0.387D-01-0.142D+00 0.111D+00
 Coeff-Com:  0.360D+00 0.638D+00
 Coeff:     -0.538D-05 0.523D-05-0.156D-05 0.329D-06-0.278D-04-0.237D-04
 Coeff:      0.514D-03 0.103D-04-0.789D-05-0.116D-03-0.109D-02-0.198D-02
 Coeff:     -0.201D-02 0.308D-01 0.449D-01-0.387D-01-0.142D+00 0.111D+00
 Coeff:      0.360D+00 0.638D+00
 Gap=     0.187 Goal=   None    Shift=    0.000
 Gap=     0.048 Goal=   None    Shift=    0.000
 RMSDP=4.60D-07 MaxDP=5.76D-05 DE=-9.52D-08 OVMax= 3.01D-04

 Cycle  22  Pass 1  IDiag  1:
 RMSU=  4.60D-07    CP:  1.00D+00
 E= -4881.65435383340     Delta-E=       -0.000000042020 Rises=F Damp=F
 DIIS: error= 2.24D-06 at cycle  22 NSaved=  20.
 NSaved=20 IEnMin=20 EnMin= -4881.65435383340     IErMin=20 ErrMin= 2.24D-06
 ErrMax= 2.24D-06  0.00D+00 EMaxC= 1.00D-01 BMatC= 7.78D-09 BMatP= 8.57D-08
 IDIUse=1 WtCom= 1.00D+00 WtEn= 0.00D+00
 Coeff-Com:  0.891D-06-0.302D-05-0.138D-05 0.865D-05 0.756D-04-0.908D-04
 Coeff-Com:  0.163D-05-0.793D-04-0.513D-03-0.598D-03 0.383D-03 0.156D-02
 Coeff-Com:  0.149D-02 0.286D-03-0.267D-01-0.698D-02-0.682D-02 0.132D-02
 Coeff-Com:  0.851D-01 0.952D+00
 Coeff:      0.891D-06-0.302D-05-0.138D-05 0.865D-05 0.756D-04-0.908D-04
 Coeff:      0.163D-05-0.793D-04-0.513D-03-0.598D-03 0.383D-03 0.156D-02
 Coeff:      0.149D-02 0.286D-03-0.267D-01-0.698D-02-0.682D-02 0.132D-02
 Coeff:      0.851D-01 0.952D+00
 Gap=     0.187 Goal=   None    Shift=    0.000
 Gap=     0.048 Goal=   None    Shift=    0.000
 RMSDP=1.02D-06 MaxDP=1.38D-04 DE=-4.20D-08 OVMax= 9.53D-04

 Cycle  23  Pass 1  IDiag  1:
 RMSU=  5.89D-07    CP:  1.00D+00  2.80D+00
 E= -4881.65435388886     Delta-E=       -0.000000055457 Rises=F Damp=F
 DIIS: error= 2.77D-06 at cycle  23 NSaved=  20.
 NSaved=20 IEnMin=20 EnMin= -4881.65435388886     IErMin=19 ErrMin= 2.24D-06
 ErrMax= 2.77D-06  0.00D+00 EMaxC= 1.00D-01 BMatC= 3.28D-08 BMatP= 7.78D-09
 IDIUse=1 WtCom= 1.00D+00 WtEn= 0.00D+00
 Coeff-Com: -0.410D-05-0.128D-04 0.311D-04 0.629D-04-0.360D-03 0.365D-05
 Coeff-Com:  0.383D-04-0.578D-03-0.553D-03-0.793D-03-0.107D-02-0.108D-01
 Coeff-Com: -0.148D-01-0.747D-03 0.454D-01-0.965D-01-0.229D+00-0.362D+00
 Coeff-Com:  0.647D+00 0.103D+01
 Coeff:     -0.410D-05-0.128D-04 0.311D-04 0.629D-04-0.360D-03 0.365D-05
 Coeff:      0.383D-04-0.578D-03-0.553D-03-0.793D-03-0.107D-02-0.108D-01
 Coeff:     -0.148D-01-0.747D-03 0.454D-01-0.965D-01-0.229D+00-0.362D+00
 Coeff:      0.647D+00 0.103D+01
 Gap=     0.188 Goal=   None    Shift=    0.000
 Gap=     0.048 Goal=   None    Shift=    0.000
 RMSDP=1.43D-06 MaxDP=1.95D-04 DE=-5.55D-08 OVMax= 1.27D-03

 Cycle  24  Pass 1  IDiag  1:
 RMSU=  1.16D-06    CP:  1.00D+00  3.00D+00  2.17D+00
 E= -4881.65435394072     Delta-E=       -0.000000051863 Rises=F Damp=F
 DIIS: error= 2.19D-06 at cycle  24 NSaved=  20.
 NSaved=20 IEnMin=20 EnMin= -4881.65435394072     IErMin=20 ErrMin= 2.19D-06
 ErrMax= 2.19D-06  0.00D+00 EMaxC= 1.00D-01 BMatC= 1.79D-08 BMatP= 7.78D-09
 IDIUse=1 WtCom= 1.00D+00 WtEn= 0.00D+00
 Coeff-Com: -0.689D-05 0.252D-04-0.366D-05-0.263D-03 0.199D-05 0.115D-03
 Coeff-Com:  0.830D-04 0.502D-03 0.478D-03-0.264D-02-0.122D-01-0.657D-02
 Coeff-Com:  0.353D-01 0.270D-01-0.971D-01-0.956D-01-0.103D+00-0.280D-01
 Coeff-Com:  0.325D+00 0.956D+00
 Coeff:     -0.689D-05 0.252D-04-0.366D-05-0.263D-03 0.199D-05 0.115D-03
 Coeff:      0.830D-04 0.502D-03 0.478D-03-0.264D-02-0.122D-01-0.657D-02
 Coeff:      0.353D-01 0.270D-01-0.971D-01-0.956D-01-0.103D+00-0.280D-01
 Coeff:      0.325D+00 0.956D+00
 Gap=     0.188 Goal=   None    Shift=    0.000
 Gap=     0.048 Goal=   None    Shift=    0.000
 RMSDP=6.65D-07 MaxDP=7.82D-05 DE=-5.19D-08 OVMax= 4.78D-04

 Cycle  25  Pass 1  IDiag  1:
 RMSU=  1.90D-07    CP:  1.00D+00  3.00D+00  2.14D+00  1.55D+00
 E= -4881.65435396471     Delta-E=       -0.000000023987 Rises=F Damp=F
 DIIS: error= 1.20D-06 at cycle  25 NSaved=  20.
 NSaved=20 IEnMin=20 EnMin= -4881.65435396471     IErMin=20 ErrMin= 1.20D-06
 ErrMax= 1.20D-06  0.00D+00 EMaxC= 1.00D-01 BMatC= 2.11D-09 BMatP= 7.78D-09
 IDIUse=1 WtCom= 1.00D+00 WtEn= 0.00D+00
 Coeff-Com:  0.404D-06-0.556D-05-0.171D-04-0.207D-05 0.249D-04 0.306D-03
 Coeff-Com:  0.968D-03 0.298D-02 0.288D-02-0.108D-01-0.111D-01 0.348D-01
 Coeff-Com:  0.499D-01-0.243D-01 0.319D-01 0.114D+00-0.321D+00-0.501D+00
 Coeff-Com:  0.244D+00 0.139D+01
 Coeff:      0.404D-06-0.556D-05-0.171D-04-0.207D-05 0.249D-04 0.306D-03
 Coeff:      0.968D-03 0.298D-02 0.288D-02-0.108D-01-0.111D-01 0.348D-01
 Coeff:      0.499D-01-0.243D-01 0.319D-01 0.114D+00-0.321D+00-0.501D+00
 Coeff:      0.244D+00 0.139D+01
 Gap=     0.188 Goal=   None    Shift=    0.000
 Gap=     0.048 Goal=   None    Shift=    0.000
 RMSDP=9.18D-07 MaxDP=1.44D-04 DE=-2.40D-08 OVMax= 8.06D-04

 Cycle  26  Pass 1  IDiag  1:
 RMSU=  8.37D-08    CP:  1.00D+00  3.00D+00  1.34D+00  2.14D+00  2.99D+00
 E= -4881.65435398927     Delta-E=       -0.000000024562 Rises=F Damp=F
 DIIS: error= 1.26D-06 at cycle  26 NSaved=  20.
 NSaved=20 IEnMin=20 EnMin= -4881.65435398927     IErMin=19 ErrMin= 1.20D-06
 ErrMax= 1.26D-06  0.00D+00 EMaxC= 1.00D-01 BMatC= 8.18D-09 BMatP= 2.11D-09
 IDIUse=1 WtCom= 1.00D+00 WtEn= 0.00D+00
 Coeff-Com: -0.192D-05-0.802D-05-0.191D-05 0.172D-04 0.202D-03 0.614D-03
 Coeff-Com:  0.161D-02 0.140D-02-0.673D-02-0.978D-02 0.137D-01 0.483D-01
 Coeff-Com:  0.139D-01-0.228D-02-0.102D-01-0.144D+00-0.215D+00-0.159D+00
 Coeff-Com:  0.650D+00 0.817D+00
 Coeff:     -0.192D-05-0.802D-05-0.191D-05 0.172D-04 0.202D-03 0.614D-03
 Coeff:      0.161D-02 0.140D-02-0.673D-02-0.978D-02 0.137D-01 0.483D-01
 Coeff:      0.139D-01-0.228D-02-0.102D-01-0.144D+00-0.215D+00-0.159D+00
 Coeff:      0.650D+00 0.817D+00
 Gap=     0.188 Goal=   None    Shift=    0.000
 Gap=     0.048 Goal=   None    Shift=    0.000
 RMSDP=4.72D-07 MaxDP=7.31D-05 DE=-2.46D-08 OVMax= 4.07D-04

 Cycle  27  Pass 1  IDiag  1:
 RMSU=  1.85D-07    CP:  1.00D+00  3.00D+00  9.14D-01  2.43D+00  3.00D+00
                    CP:  1.87D+00
 E= -4881.65435399680     Delta-E=       -0.000000007532 Rises=F Damp=F
 DIIS: error= 4.46D-07 at cycle  27 NSaved=  20.
 NSaved=20 IEnMin=20 EnMin= -4881.65435399680     IErMin=20 ErrMin= 4.46D-07
 ErrMax= 4.46D-07  0.00D+00 EMaxC= 1.00D-01 BMatC= 3.34D-10 BMatP= 2.11D-09
 IDIUse=1 WtCom= 1.00D+00 WtEn= 0.00D+00
 Coeff-Com:  0.782D-06 0.318D-04-0.143D-05 0.328D-04 0.618D-04-0.103D-03
 Coeff-Com:  0.649D-03 0.101D-02-0.282D-02-0.930D-02 0.207D-02 0.217D-01
 Coeff-Com: -0.105D-01-0.575D-01 0.412D-01 0.106D+00-0.166D+00-0.272D+00
 Coeff-Com:  0.349D+00 0.995D+00
 Coeff:      0.782D-06 0.318D-04-0.143D-05 0.328D-04 0.618D-04-0.103D-03
 Coeff:      0.649D-03 0.101D-02-0.282D-02-0.930D-02 0.207D-02 0.217D-01
 Coeff:     -0.105D-01-0.575D-01 0.412D-01 0.106D+00-0.166D+00-0.272D+00
 Coeff:      0.349D+00 0.995D+00
 Gap=     0.188 Goal=   None    Shift=    0.000
 Gap=     0.048 Goal=   None    Shift=    0.000
 RMSDP=3.51D-07 MaxDP=4.55D-05 DE=-7.53D-09 OVMax= 2.76D-04

 Cycle  28  Pass 1  IDiag  1:
 RMSU=  3.43D-08    CP:  1.00D+00  3.00D+00  7.59D-01  2.70D+00  3.00D+00
                    CP:  2.53D+00  1.68D+00
 E= -4881.65435399996     Delta-E=       -0.000000003160 Rises=F Damp=F
 DIIS: error= 7.91D-07 at cycle  28 NSaved=  20.
 NSaved=20 IEnMin=20 EnMin= -4881.65435399996     IErMin=19 ErrMin= 4.46D-07
 ErrMax= 7.91D-07  0.00D+00 EMaxC= 1.00D-01 BMatC= 2.93D-09 BMatP= 3.34D-10
 IDIUse=1 WtCom= 1.00D+00 WtEn= 0.00D+00
 Coeff-Com:  0.409D-04-0.545D-05-0.819D-04-0.251D-03-0.783D-03 0.222D-03
 Coeff-Com:  0.391D-02 0.225D-02-0.110D-01-0.255D-01 0.655D-02 0.658D-02
 Coeff-Com: -0.574D-02 0.838D-01 0.102D+00-0.809D-01-0.380D+00-0.135D+00
 Coeff-Com:  0.601D+00 0.833D+00
 Coeff:      0.409D-04-0.545D-05-0.819D-04-0.251D-03-0.783D-03 0.222D-03
 Coeff:      0.391D-02 0.225D-02-0.110D-01-0.255D-01 0.655D-02 0.658D-02
 Coeff:     -0.574D-02 0.838D-01 0.102D+00-0.809D-01-0.380D+00-0.135D+00
 Coeff:      0.601D+00 0.833D+00
 Gap=     0.188 Goal=   None    Shift=    0.000
 Gap=     0.048 Goal=   None    Shift=    0.000
 RMSDP=2.72D-07 MaxDP=3.42D-05 DE=-3.16D-09 OVMax= 1.76D-04

 Cycle  29  Pass 1  IDiag  1:
 RMSU=  1.91D-08    CP:  1.00D+00  3.00D+00  7.67D-01  2.92D+00  3.00D+00
                    CP:  2.94D+00  2.13D+00  2.09D+00
 E= -4881.65435400169     Delta-E=       -0.000000001723 Rises=F Damp=F
 DIIS: error= 7.25D-07 at cycle  29 NSaved=  20.
 NSaved=20 IEnMin=20 EnMin= -4881.65435400169     IErMin=18 ErrMin= 4.46D-07
 ErrMax= 7.25D-07  0.00D+00 EMaxC= 1.00D-01 BMatC= 2.39D-09 BMatP= 3.34D-10
 IDIUse=1 WtCom= 1.00D+00 WtEn= 0.00D+00
 Coeff-Com:  0.700D-05-0.729D-05-0.568D-04-0.394D-03-0.628D-03 0.993D-03
 Coeff-Com:  0.233D-02 0.274D-03-0.142D-01-0.440D-02 0.123D-01 0.304D-01
 Coeff-Com:  0.328D-01-0.302D-01-0.510D-01-0.214D-01-0.673D-01-0.423D-02
 Coeff-Com:  0.175D+00 0.940D+00
 Coeff:      0.700D-05-0.729D-05-0.568D-04-0.394D-03-0.628D-03 0.993D-03
 Coeff:      0.233D-02 0.274D-03-0.142D-01-0.440D-02 0.123D-01 0.304D-01
 Coeff:      0.328D-01-0.302D-01-0.510D-01-0.214D-01-0.673D-01-0.423D-02
 Coeff:      0.175D+00 0.940D+00
 Gap=     0.188 Goal=   None    Shift=    0.000
 Gap=     0.048 Goal=   None    Shift=    0.000
 RMSDP=1.25D-07 MaxDP=1.70D-05 DE=-1.72D-09 OVMax= 1.02D-04

 Cycle  30  Pass 1  IDiag  1:
 RMSU=  1.68D-08    CP:  1.00D+00  3.00D+00  8.30D-01  3.00D+00  3.00D+00
                    CP:  3.00D+00  2.29D+00  3.00D+00  1.87D+00
 E= -4881.65435400236     Delta-E=       -0.000000000675 Rises=F Damp=F
 DIIS: error= 3.85D-07 at cycle  30 NSaved=  20.
 NSaved=20 IEnMin=20 EnMin= -4881.65435400236     IErMin=20 ErrMin= 3.85D-07
 ErrMax= 3.85D-07  0.00D+00 EMaxC= 1.00D-01 BMatC= 6.43D-10 BMatP= 3.34D-10
 IDIUse=1 WtCom= 1.00D+00 WtEn= 0.00D+00
 Coeff-Com:  0.209D-04 0.448D-04 0.418D-04-0.148D-03-0.306D-03 0.417D-03
 Coeff-Com:  0.255D-02 0.801D-03-0.684D-03 0.539D-02 0.173D-01 0.977D-04
 Coeff-Com: -0.554D-01-0.363D-01 0.117D+00 0.528D-01-0.118D+00-0.262D+00
 Coeff-Com:  0.531D-01 0.122D+01
 Coeff:      0.209D-04 0.448D-04 0.418D-04-0.148D-03-0.306D-03 0.417D-03
 Coeff:      0.255D-02 0.801D-03-0.684D-03 0.539D-02 0.173D-01 0.977D-04
 Coeff:     -0.554D-01-0.363D-01 0.117D+00 0.528D-01-0.118D+00-0.262D+00
 Coeff:      0.531D-01 0.122D+01
 Gap=     0.188 Goal=   None    Shift=    0.000
 Gap=     0.048 Goal=   None    Shift=    0.000
 RMSDP=7.44D-08 MaxDP=8.69D-06 DE=-6.75D-10 OVMax= 4.85D-05

 Cycle  31  Pass 1  IDiag  1:
 RMSU=  4.60D-08    CP:  1.00D+00  3.00D+00  8.44D-01  3.00D+00  3.00D+00
                    CP:  3.00D+00  2.44D+00  3.00D+00  2.95D+00  3.00D+00
 E= -4881.65435400269     Delta-E=       -0.000000000333 Rises=F Damp=F
 DIIS: error= 1.30D-07 at cycle  31 NSaved=  20.
 NSaved=20 IEnMin=20 EnMin= -4881.65435400269     IErMin=20 ErrMin= 1.30D-07
 ErrMax= 1.30D-07  0.00D+00 EMaxC= 1.00D-01 BMatC= 4.77D-11 BMatP= 3.34D-10
 IDIUse=1 WtCom= 1.00D+00 WtEn= 0.00D+00
 Coeff-Com:  0.410D-04 0.234D-03 0.239D-03-0.971D-03-0.102D-02 0.196D-02
 Coeff-Com:  0.771D-02 0.687D-03-0.494D-02-0.516D-02-0.208D-03-0.217D-01
 Coeff-Com: -0.101D-01 0.105D+00 0.625D-01-0.103D+00-0.285D+00-0.405D+00
 Coeff-Com:  0.832D+00 0.828D+00
 Coeff:      0.410D-04 0.234D-03 0.239D-03-0.971D-03-0.102D-02 0.196D-02
 Coeff:      0.771D-02 0.687D-03-0.494D-02-0.516D-02-0.208D-03-0.217D-01
 Coeff:     -0.101D-01 0.105D+00 0.625D-01-0.103D+00-0.285D+00-0.405D+00
 Coeff:      0.832D+00 0.828D+00
 Gap=     0.188 Goal=   None    Shift=    0.000
 Gap=     0.048 Goal=   None    Shift=    0.000
 RMSDP=5.40D-08 MaxDP=5.92D-06 DE=-3.33D-10 OVMax= 3.67D-05

 Cycle  32  Pass 1  IDiag  1:
 RMSU=  3.23D-08    CP:  1.00D+00  3.00D+00  8.65D-01  3.00D+00  3.00D+00
                    CP:  3.00D+00  2.52D+00  3.00D+00  3.00D+00  3.00D+00
                    CP:  1.83D+00
 E= -4881.65435400283     Delta-E=       -0.000000000138 Rises=F Damp=F
 DIIS: error= 1.01D-07 at cycle  32 NSaved=  20.
 NSaved=20 IEnMin=20 EnMin= -4881.65435400283     IErMin=20 ErrMin= 1.01D-07
 ErrMax= 1.01D-07  0.00D+00 EMaxC= 1.00D-01 BMatC= 1.22D-11 BMatP= 4.77D-11
 IDIUse=1 WtCom= 1.00D+00 WtEn= 0.00D+00
 Coeff-Com:  0.640D-04 0.245D-03-0.165D-03-0.905D-03-0.237D-02 0.162D-02
 Coeff-Com:  0.128D-02-0.110D-01-0.253D-01 0.212D-01 0.582D-01 0.140D-01
 Coeff-Com: -0.102D+00-0.228D-01 0.133D+00 0.117D+00-0.385D+00-0.309D+00
 Coeff-Com:  0.377D+00 0.114D+01
 Coeff:      0.640D-04 0.245D-03-0.165D-03-0.905D-03-0.237D-02 0.162D-02
 Coeff:      0.128D-02-0.110D-01-0.253D-01 0.212D-01 0.582D-01 0.140D-01
 Coeff:     -0.102D+00-0.228D-01 0.133D+00 0.117D+00-0.385D+00-0.309D+00
 Coeff:      0.377D+00 0.114D+01
 Gap=     0.188 Goal=   None    Shift=    0.000
 Gap=     0.048 Goal=   None    Shift=    0.000
 RMSDP=4.65D-08 MaxDP=5.60D-06 DE=-1.38D-10 OVMax= 3.00D-05

 Cycle  33  Pass 1  IDiag  1:
 RMSU=  8.21D-09    CP:  1.00D+00  3.00D+00  8.72D-01  3.00D+00  3.00D+00
                    CP:  3.00D+00  2.58D+00  3.00D+00  3.00D+00  3.00D+00
                    CP:  2.47D+00  2.03D+00
 E= -4881.65435400296     Delta-E=       -0.000000000127 Rises=F Damp=F
 DIIS: error= 1.60D-07 at cycle  33 NSaved=  20.
 NSaved=20 IEnMin=20 EnMin= -4881.65435400296     IErMin=19 ErrMin= 1.01D-07
 ErrMax= 1.60D-07  0.00D+00 EMaxC= 1.00D-01 BMatC= 1.20D-10 BMatP= 1.22D-11
 IDIUse=1 WtCom= 1.00D+00 WtEn= 0.00D+00
 Coeff-Com: -0.306D-04 0.526D-04 0.107D-03-0.169D-02-0.345D-02 0.983D-03
 Coeff-Com: -0.181D-02-0.778D-02 0.904D-02 0.301D-01 0.929D-03-0.106D+00
 Coeff-Com: -0.398D-01 0.157D+00 0.249D+00-0.106D+00-0.762D+00-0.208D+00
 Coeff-Com:  0.821D+00 0.968D+00
 Coeff:     -0.306D-04 0.526D-04 0.107D-03-0.169D-02-0.345D-02 0.983D-03
 Coeff:     -0.181D-02-0.778D-02 0.904D-02 0.301D-01 0.929D-03-0.106D+00
 Coeff:     -0.398D-01 0.157D+00 0.249D+00-0.106D+00-0.762D+00-0.208D+00
 Coeff:      0.821D+00 0.968D+00
 Gap=     0.188 Goal=   None    Shift=    0.000
 Gap=     0.048 Goal=   None    Shift=    0.000
 RMSDP=7.44D-08 MaxDP=8.67D-06 DE=-1.27D-10 OVMax= 4.55D-05

 Cycle  34  Pass 1  IDiag  1:
 RMSU=  3.52D-08    CP:  1.00D+00  3.00D+00  8.75D-01  3.00D+00  3.00D+00
                    CP:  3.00D+00  2.71D+00  3.00D+00  3.00D+00  3.00D+00
                    CP:  3.00D+00  3.00D+00  5.74D-02
 E= -4881.65435400304     Delta-E=       -0.000000000076 Rises=F Damp=F
 DIIS: error= 1.37D-07 at cycle  34 NSaved=  20.
 NSaved=20 IEnMin=20 EnMin= -4881.65435400304     IErMin=18 ErrMin= 1.01D-07
 ErrMax= 1.37D-07  0.00D+00 EMaxC= 1.00D-01 BMatC= 8.64D-11 BMatP= 1.22D-11
 IDIUse=1 WtCom= 1.00D+00 WtEn= 0.00D+00
 Coeff-Com:  0.177D-04 0.330D-03-0.149D-03-0.306D-02-0.904D-03 0.283D-02
 Coeff-Com:  0.634D-02 0.291D-02-0.523D-02-0.144D-01-0.244D-01-0.104D-01
 Coeff-Com:  0.431D-01 0.104D+00 0.677D-01-0.380D+00-0.264D+00 0.944D-01
 Coeff-Com:  0.476D+00 0.905D+00
 Coeff:      0.177D-04 0.330D-03-0.149D-03-0.306D-02-0.904D-03 0.283D-02
 Coeff:      0.634D-02 0.291D-02-0.523D-02-0.144D-01-0.244D-01-0.104D-01
 Coeff:      0.431D-01 0.104D+00 0.677D-01-0.380D+00-0.264D+00 0.944D-01
 Coeff:      0.476D+00 0.905D+00
 Gap=     0.188 Goal=   None    Shift=    0.000
 Gap=     0.048 Goal=   None    Shift=    0.000
 RMSDP=5.51D-08 MaxDP=6.57D-06 DE=-7.64D-11 OVMax= 3.40D-05

 Cycle  35  Pass 1  IDiag  1:
 RMSU=  1.94D-08    CP:  1.00D+00  3.00D+00  8.79D-01  3.00D+00  3.00D+00
                    CP:  3.00D+00  2.81D+00  3.00D+00  3.00D+00  3.00D+00
                    CP:  3.00D+00  3.00D+00 -5.74D-01  2.36D+00
 E= -4881.65435400312     Delta-E=       -0.000000000084 Rises=F Damp=F
 DIIS: error= 4.32D-08 at cycle  35 NSaved=  20.
 NSaved=20 IEnMin=20 EnMin= -4881.65435400312     IErMin=20 ErrMin= 4.32D-08
 ErrMax= 4.32D-08  0.00D+00 EMaxC= 1.00D-01 BMatC= 7.69D-12 BMatP= 1.22D-11
 IDIUse=1 WtCom= 1.00D+00 WtEn= 0.00D+00
 Coeff-Com:  0.625D-04-0.105D-03-0.977D-03-0.955D-03 0.931D-03 0.357D-02
 Coeff-Com:  0.494D-02-0.234D-02-0.102D-01-0.224D-03 0.283D-02-0.404D-02
 Coeff-Com:  0.378D-02 0.709D-01 0.134D-01-0.589D-01-0.177D+00-0.120D+00
 Coeff-Com:  0.373D+00 0.901D+00
 Coeff:      0.625D-04-0.105D-03-0.977D-03-0.955D-03 0.931D-03 0.357D-02
 Coeff:      0.494D-02-0.234D-02-0.102D-01-0.224D-03 0.283D-02-0.404D-02
 Coeff:      0.378D-02 0.709D-01 0.134D-01-0.589D-01-0.177D+00-0.120D+00
 Coeff:      0.373D+00 0.901D+00
 Gap=     0.188 Goal=   None    Shift=    0.000
 Gap=     0.048 Goal=   None    Shift=    0.000
 RMSDP=1.55D-08 MaxDP=2.11D-06 DE=-8.37D-11 OVMax= 1.18D-05

 Cycle  36  Pass 1  IDiag  1:
 RMSU=  3.57D-09    CP:  1.00D+00  3.00D+00  8.83D-01  3.00D+00  3.00D+00
                    CP:  3.00D+00  2.83D+00  3.00D+00  3.00D+00  3.00D+00
                    CP:  3.00D+00  3.00D+00 -1.85D-01  2.68D+00  1.43D+00
 E= -4881.65435400305     Delta-E=        0.000000000069 Rises=F Damp=F
 DIIS: error= 2.15D-08 at cycle  36 NSaved=  20.
 NSaved=20 IEnMin=19 EnMin= -4881.65435400312     IErMin=20 ErrMin= 2.15D-08
 ErrMax= 2.15D-08  0.00D+00 EMaxC= 1.00D-01 BMatC= 1.32D-12 BMatP= 7.69D-12
 IDIUse=1 WtCom= 1.00D+00 WtEn= 0.00D+00
 Coeff-Com: -0.528D-04 0.418D-04-0.395D-03 0.812D-04 0.115D-02 0.190D-02
 Coeff-Com:  0.592D-03 0.987D-04 0.272D-02 0.896D-04-0.961D-02-0.153D-01
 Coeff-Com:  0.133D-01 0.869D-01 0.427D-01-0.875D-01-0.186D+00-0.549D-01
 Coeff-Com:  0.340D+00 0.865D+00
 Coeff:     -0.528D-04 0.418D-04-0.395D-03 0.812D-04 0.115D-02 0.190D-02
 Coeff:      0.592D-03 0.987D-04 0.272D-02 0.896D-04-0.961D-02-0.153D-01
 Coeff:      0.133D-01 0.869D-01 0.427D-01-0.875D-01-0.186D+00-0.549D-01
 Coeff:      0.340D+00 0.865D+00
 Gap=     0.188 Goal=   None    Shift=    0.000
 Gap=     0.048 Goal=   None    Shift=    0.000
 RMSDP=7.66D-09 MaxDP=1.33D-06 DE= 6.91D-11 OVMax= 7.65D-06

 Cycle  37  Pass 1  IDiag  1:
 RMSU=  1.03D-09    CP:  1.00D+00  3.00D+00  8.85D-01  3.00D+00  3.00D+00
                    CP:  3.00D+00  2.83D+00  3.00D+00  3.00D+00  3.00D+00
[...]
 89,-0.00000970,-0.00001535,0.00000188,0.00000427,0.00000205,0.00006338
 ,-0.00001525,0.00003866,-0.00338011,-0.00439746,-0.00003991,0.00006852
 ,0.00001415,0.00006941,0.00006723,-0.00007671,0.00008697,-0.00005158,0
 .00005568,-0.00024767,-0.00512348,-0.00323225,0.00743553,-0.00014580,0
 .00006956,-0.00020838,-0.00003154,0.00002495,0.00015042,-0.00000252,-0
 .00003059,0.00005750,0.00003052,-0.00039686,-0.00017272,0.00057564,-0.
 00054434,0.00049117,0.00003882,-0.00017858,0.00015615,0.00002613,-0.00
 002040,0.00005660,-0.00006846,-0.00016085,-0.00007918,0.05456722,0.042
 29388,-0.09596573,-0.00000669,0.00002213,-0.00003158,0.00002361,0.0000
 2449,0.00002009,0.00004642,0.00010867,0.00004552,0.00000798,0.00002316
 ,0.00002931,0.02446316,0.05152477,-0.03105106,0.04460647,0.00582137,-0
 .01093098,-0.11531011,-0.09165569,0.13062660,0.00013575,-0.00019084,-0
 .00014958,0.00013800,-0.00008310,0.00007754,-0.00007910,0.00009806,0.0
 0020621,0.00011298,-0.00011585,0.00003980,-0.00022593,0.00021393,-0.00
 016269,0.00006148,-0.00009450,-0.00007364,-0.00028083,0.00012721,0.000
 11858,0.00000139,-0.00019693,-0.00007757,-0.00028339,0.00015915,-0.000
 18233,0.00217477,0.00189217,0.00107997,-0.00001471,-0.00040402,0.00023
 803,0.00001773,-0.00000737,0.00001310,-0.00000568,0.00000111,-0.000001
 27,0.00000121,0.00000017,-0.00000165,0.00000156,-0.00000200,0.00000113
 ,0.00005023,-0.00002041,-0.00001261,0.00012126,0.00003626,0.00002133,0
 .00007319,0.00026650,-0.00010311,-0.00450170,0.00023633,-0.00225179,-0
 .00001358,-0.00356635,0.00062955,-0.00056052,-0.00116182,-0.00022765,-
 0.00006147,0.00026769,-0.00014302,0.00023215,0.00019594,-0.00007385,-0
 .00001150,-0.00011874,0.00003433,-0.00015788,-0.00001958,-0.00003257,-
 0.00014663,0.00003611,-0.00005037,-0.00083688,-0.00026243,-0.00009215,
 -0.00000323,0.00001328,-0.00000275,0.00000252,0.00001735,-0.00000814,-
 0.00000246,0.00000954,-0.00000490,0.00013061,0.00016563,-0.00008176,-0
 .00268028,0.00097022,0.00108404,0.00748323,-0.00107216,0.00194537,-0.0
 2064521,0.00438368,0.00632348,-0.00035922,-0.00004577,0.00014213,0.002
 39355,-0.00048083,0.00015269,0.00530660,-0.00102662,-0.00427583,-0.001
 32126,-0.00711166,0.00153516,0.00024355,-0.00009769,-0.00008808,0.0000
 7662,-0.00000624,-0.00001835,-0.00040328,0.00047558,-0.00018042,-0.000
 49774,-0.00004313,0.00010465,-0.00008016,-0.00029814,-0.00076557,-0.00
 006724,0.00001138,0.00000830,-0.23739201,-0.10123332,0.06736778,-0.000
 34987,0.00013953,0.00028231,0.00004549,0.00021034,0.00019349,0.0000070
 9,-0.00001531,0.00023318,0.00002665,-0.00000801,0.00000602,0.00003062,
 -0.00002766,-0.00002418,0.00004361,0.00002199,-0.00000620,0.36298200,0
 .00014863,-0.00013903,-0.00012303,-0.00035705,0.00030414,-0.00017258,0
 .00021281,-0.00025728,-0.00047293,-0.00011904,0.00014011,0.00013458,0.
 00033314,-0.00030580,0.00017779,-0.00018784,0.00024081,0.00045698,0.00
 018958,-0.00001912,-0.00009330,-0.00022000,-0.00008629,0.00005816,-0.0
 0004624,0.00008974,-0.00002373,0.00051713,-0.00046150,0.00023429,-0.00
 006763,0.00004418,-0.00000242,-0.00000647,-0.00000385,-0.00000246,0.00
 000126,-0.00000166,0.00000178,-0.00000310,-0.00000095,0.00000036,0.000
 00081,-0.00000217,-0.00000356,0.00000308,-0.00001092,0.00000736,-0.000
 02215,0.00000247,0.00003405,0.00009760,0.00006043,-0.00011598,-0.00000
 547,0.00066745,-0.00026725,-0.00308305,0.00041285,0.00094958,-0.000248
 41,0.00029926,-0.00006637,0.00005902,-0.00000704,0.00004309,0.00051776
 ,-0.00027713,-0.00005970,-0.00000218,0.00002025,-0.00002313,-0.0001287
 3,0.00001985,-0.00002496,-0.00006910,0.00001505,-0.00007008,-0.0005920
 5,-0.00029229,-0.00007544,0.00000538,0.00000092,-0.00000203,-0.0000065
 8,-0.00000151,-0.00000306,-0.00000925,-0.00000234,0.00000300,0.0001571
 2,0.00002257,-0.00010953,-0.00020110,0.00043035,0.00002241,0.00782995,
 -0.00238215,0.00195475,-0.03640227,0.00303776,0.01029977,-0.00053920,0
 .00026835,0.00016861,0.00037255,-0.00047505,0.00000666,0.00507246,-0.0
 0375557,-0.00392089,-0.00662146,-0.01405197,0.00398749,0.00046736,-0.0
 0039291,-0.00014753,0.00013628,-0.00012546,0.00002486,-0.00008963,0.00
 023792,-0.00012199,-0.00007546,0.00016482,0.00002553,0.00004541,-0.000
 12045,-0.00000975,-0.00000995,0.00012875,0.00008097,-0.09893769,-0.138
 99802,0.04114177,-0.00005052,0.00002780,0.00000902,0.00000984,0.000061
 72,0.00002334,-0.00001990,0.00004763,-0.00002404,0.00001551,-0.0000334
 7,-0.00001714,0.00004787,-0.00008999,-0.00007486,0.00000165,-0.0000283
 5,-0.00001263,0.12510593,0.12032414,-0.00001860,0.00002151,0.00004305,
 0.00001197,-0.00000885,-0.00000238,-0.00001443,0.00001808,0.00003061,-
 0.00001536,0.00000895,-0.00004989,0.00001954,-0.00002001,0.00002062,-0
 .00000479,-0.00000148,-0.00004526,0.00001029,-0.00001783,-0.00001717,0
 .00000942,0.00000032,-0.00006074,0.00002140,-0.00000730,0.00004467,-0.
 00023459,0.00007076,-0.00018586,0.00005051,0.00005728,-0.00004944,-0.0
 0000058,-0.00000013,-0.00000219,0.00000102,-0.00000043,-0.00000004,0.0
 0000064,0.00000009,0.00000013,-0.00000173,0.00000224,0.00000033,-0.000
 02166,0.00000899,-0.00000126,-0.00002499,-0.00000718,-0.00001447,-0.00
 006208,-0.00004585,0.00005636,-0.00074106,0.00010922,0.00025700,0.0003
 8497,0.00106658,-0.00063923,0.00011682,0.00000349,0.00009366,-0.000014
 21,-0.00003128,0.00001435,-0.00022102,-0.00001991,-0.00020433,0.000004
 30,0.00001265,-0.00000844,0.00005573,-0.00001139,0.00003900,-0.0001383
 4,-0.00006693,0.00011787,-0.00035088,-0.00035616,-0.00058227,-0.000000
 94,-0.00000256,-0.00000027,0.00000038,-0.00000269,0.00000279,0.0000031
 8,-0.00000194,-0.00000007,-0.00006669,-0.00004842,0.00005432,0.0019036
 8,-0.00069173,-0.00088083,-0.00159011,0.00014040,0.00039717,0.01332469
 ,-0.00149977,-0.00131461,0.00017953,-0.00003305,-0.00011537,-0.0013799
 5,0.00018631,-0.00038172,-0.00402395,0.00123364,0.00387333,0.00156548,
 0.00457220,-0.00075992,-0.00013796,0.00007228,0.00005056,-0.00003714,0
 .00001731,0.00002339,0.00026129,-0.00026559,0.00023504,0.00028967,0.00
 006596,0.00005456,0.00001300,0.00015636,0.00033083,0.00001086,-0.00000
 800,-0.00004763,0.06739343,0.04204419,-0.09743450,0.00020590,-0.000074
 13,-0.00013726,-0.00000720,-0.00008816,-0.00007642,0.00001235,-0.00000
 950,-0.00008206,0.00000100,-0.00000461,0.00002437,-0.00001209,0.000018
 21,0.00002306,-0.00001446,-0.00000664,0.00001194,-0.10424529,-0.043159
 68,0.12191766,-0.00001561,-0.00002792,0.00000184,0.00037489,-0.0002939
 5,0.00018286,-0.00022679,0.00027763,0.00052881,0.00016735,-0.00019020,
 -0.00009990,-0.00040943,0.00038101,-0.00024729,0.00018563,-0.00025185,
 -0.00041670,-0.00034860,0.00010135,0.00014921,0.00021069,0.00000368,-0
 .00010217,-0.00010086,0.00003468,-0.00005915,0.00100444,0.00072733,0.0
 0042892,0.00014180,-0.00025413,0.00016467,0.00001801,-0.00000349,0.000
 01006,-0.00000426,0.00000139,-0.00000277,0.00000316,0.00000057,-0.0000
 0159,-0.00000050,0.00000011,0.00000370,0.00002426,-0.00000531,-0.00001
 637,0.00009836,0.00001637,-0.00001818,-0.00012152,0.00010200,0.0000729
 7,-0.00131626,-0.00002892,-0.00034691,0.00214580,-0.00164585,-0.001266
 82,-0.00029096,-0.00054934,-0.00013573,-0.00013060,0.00019962,-0.00014
 696,0.00011495,0.00007809,-0.00007573,-0.00000267,-0.00011159,0.000041
 22,-0.00008142,-0.00001318,-0.00001738,0.00009287,0.00005626,-0.000095
 24,-0.00003047,0.00011095,0.00020318,-0.00000889,0.00000747,-0.0000014
 0,0.00000905,0.00001200,-0.00000076,0.00001044,0.00000746,-0.00000689,
 -0.00006505,0.00009416,0.00008149,-0.00068660,0.00031116,0.00037654,-0
 .00442813,0.00714949,-0.00305150,-0.01226762,-0.00908401,-0.01479284,0
 .00032342,-0.00032680,-0.00013533,0.00068577,-0.00010583,-0.00020452,0
 .00019648,0.00233252,0.00442005,0.00673324,0.00393572,0.00034091,-0.00
 031278,0.00046285,0.00018192,-0.00008114,0.00013121,-0.00001750,-0.000
 10974,0.00007763,0.00007175,-0.00015599,-0.00002649,0.00011451,-0.0000
 4242,-0.00008835,-0.00034657,-0.00012052,-0.00010287,-0.00012695,-0.19
 636655,0.05489152,-0.12003954,-0.00009969,0.00004418,0.00011448,0.0000
 2379,0.00008514,0.00009309,0.00001529,-0.00002979,0.00013327,0.0000363
 8,0.00000956,0.00006062,-0.00001018,0.00007610,0.00007427,0.00005335,0
 .00004944,0.00001796,-0.07949292,-0.00518438,-0.02792301,0.27438385,0.
 00010281,-0.00007432,-0.00008162,-0.00042760,0.00035054,-0.00020766,0.
 00025700,-0.00031254,-0.00058475,-0.00016496,0.00019088,0.00014084,0.0
 0043063,-0.00039834,0.00024494,-0.00021953,0.00028892,0.00051637,0.000
 30450,-0.00006739,-0.00014111,-0.00025865,-0.00007599,0.00008972,0.000
 01593,0.00004604,0.00001466,-0.00026044,-0.00049453,-0.00010116,-0.000
 17039,0.00013798,-0.00012290,-0.00001388,-0.00000071,-0.00000726,0.000
 00311,-0.00000185,0.00000247,-0.00000375,-0.00000094,0.00000093,0.0000
 0068,-0.00000148,-0.00000426,-0.00001048,-0.00000455,0.00001335,-0.000
 06630,-0.00000591,0.00003307,0.00017480,0.00000238,-0.00012501,0.00042
 982,0.00020189,-0.00012168,-0.00316387,0.00082396,0.00185550,0.0000094
 6,0.00044404,0.00003736,0.00012756,-0.00011616,0.00012341,0.00012101,-
 0.00014429,0.00003977,0.00000014,0.00007899,-0.00004177,-0.00000212,0.
 00001439,-0.00000391,0.00000713,-0.00000062,-0.00001859,0.00001001,0.0
 0001730,0.00003825,0.00000880,-0.00000368,-0.00000033,-0.00000966,-0.0
 0000818,-0.00000161,-0.00001316,-0.00000673,0.00000573,0.00014965,-0.0
 0003955,-0.00012658,0.00010107,0.00010589,-0.00009227,0.00891634,-0.01
 061029,0.00591464,0.02036486,0.01147498,0.02060126,-0.00059612,0.00039
 381,0.00019783,-0.00001888,-0.00019987,0.00017960,0.00060347,-0.003119
 46,-0.00499298,-0.00413589,-0.00294925,-0.00101266,0.00052494,-0.00063
 399,-0.00025529,0.00014907,-0.00017332,0.00003667,-0.00000916,0.000117
 84,-0.00012148,0.00001557,0.00009411,-0.00005680,0.00002352,-0.0000381
 3,0.00013029,0.00009216,0.00015241,0.00012740,0.05353260,-0.10111139,0
 .05167627,0.00000478,0.00000059,-0.00003796,-0.00000106,0.00000283,-0.
 00002595,-0.00001593,0.00004120,-0.00007199,-0.00001663,-0.00002957,-0
 .00004804,0.00003579,-0.00011241,-0.00010007,-0.00003984,-0.00005226,-
 0.00001646,-0.01775355,0.01530721,-0.01064756,-0.04595582,0.07507130,-
 0.00003461,0.00000461,0.00003040,0.00031766,-0.00025200,0.00014994,-0.
 00019491,0.00023862,0.00045069,0.00012892,-0.00015053,-0.00010837,-0.0
 0032624,0.00030241,-0.00019251,0.00015343,-0.00020985,-0.00036774,-0.0
 0027103,0.00006969,0.00010933,0.00018513,0.00002805,-0.00009319,-0.000
 04154,0.00000798,-0.00000913,0.00054218,0.00042834,0.00017525,0.000145
 29,-0.00015408,0.00009209,0.00001347,-0.00000223,0.00000607,-0.0000026
 0,0.00000085,-0.00000253,0.00000263,0.00000046,-0.00000152,-0.00000162
 ,0.00000104,0.00000311,0.00001016,0.00000005,-0.00001401,0.00006403,0.
 00000857,-0.00002193,-0.00013038,0.00004225,0.00010095,-0.00067166,-0.
 00007384,-0.00000850,0.00193953,-0.00080388,-0.00126044,-0.00013473,-0
 .00035976,-0.00004419,-0.00010905,0.00012953,-0.00010074,0.00003252,0.
 00008161,-0.00006960,0.00000155,-0.00007835,0.00002687,-0.00003352,-0.
 00001036,-0.00000214,0.00002569,0.00002507,-0.00002526,0.00000120,0.00
 002880,0.00004253,-0.00000779,0.00000369,-0.00000129,0.00000638,0.0000
 0669,0.00000075,0.00001059,0.00000406,-0.00000595,-0.00008969,0.000048
 75,0.00010619,-0.00018183,0.00006531,0.00023679,-0.00466037,0.00688521
 ,-0.00277459,-0.01569222,-0.00843165,-0.01093786,0.00037682,-0.0002898
 4,-0.00019396,0.00009464,0.00005420,-0.00025742,-0.00083101,0.00451110
 ,0.00634638,0.00425412,0.00165213,0.00096429,-0.00034731,0.00044888,0.
 00019651,-0.00009123,0.00012093,0.00000382,0.00000111,-0.00006111,0.00
 014176,-0.00001753,-0.00002565,0.00010209,-0.00008719,-0.00000488,-0.0
 0020471,-0.00010873,-0.00007846,-0.00015228,-0.11891094,0.05210205,-0.
 18428579,0.00000015,0.00000992,0.00005596,0.00002734,0.00003960,0.0000
 5582,0.00003181,-0.00004107,0.00009960,0.00003868,-0.00000229,0.000078
 13,-0.00001264,0.00007283,0.00007933,0.00003863,0.00003565,0.00002598,
 -0.01431208,-0.00605326,0.01423108,0.18279867,-0.04286003,0.25280198,-
 0.00001379,-0.00000855,-0.00000305,0.00017893,-0.00014224,0.00009116,-
 0.00010531,0.00012855,0.00024485,0.00008376,-0.00009282,-0.00003423,-0
 .00020274,0.00018891,-0.00012275,0.00009397,-0.00012246,-0.00019562,-0
 .00016015,0.00004971,0.00007579,0.00010467,0.00000369,-0.00003546,-0.0
 0005100,0.00001791,-0.00004072,0.00049022,0.00032017,0.00021426,0.0000
 0470,-0.00015409,0.00007792,0.00000804,-0.00000134,0.00000531,-0.00000
 236,0.00000092,-0.00000111,0.00000148,0.00000033,-0.00000050,0.0000005
 4,-0.00000044,0.00000172,0.00001621,-0.00000381,-0.00000660,0.00005165
 ,0.00000841,-0.00000631,0.00000809,0.00006513,-0.00000120,-0.00052531,
 0.00000037,-0.00022950,0.00115627,-0.00088991,0.00007716,-0.00013827,-
 0.00023992,-0.00007601,-0.00003606,0.00009267,-0.00006097,0.00007731,0
 .00001590,-0.00006031,-0.00000337,-0.00004869,0.00002187,-0.00004140,-
 0.00000710,-0.00001037,0.00005942,0.00003255,-0.00004498,0.00009093,0.
 00010055,0.00013434,-0.00000321,0.00000415,0.00000003,0.00000325,0.000
 00590,-0.00000222,0.00000259,0.00000446,-0.00000241,-0.00000987,0.0000
 5731,0.00000674,-0.00060022,0.00024903,0.00020909,0.00011466,-0.000434
 77,-0.00060306,0.00174437,-0.00064983,0.00918580,0.00008446,-0.0001367
 3,0.00000307,0.00058429,-0.00009842,-0.00000197,-0.00130664,0.00366388
 ,0.00138901,0.00310389,0.00253118,-0.00225605,-0.00010203,0.00012308,-
 0.00001957,-0.00002869,0.00005737,-0.00002550,-0.00009900,0.00009163,-
 0.00002727,-0.00013831,-0.00002850,0.00003190,0.00000797,-0.00006055,-
 0.00020339,-0.00001301,-0.00007548,-0.00000635,-0.08693988,0.03558287,
 0.05217204,-0.00009191,0.00003283,0.00007415,0.00000279,0.00004534,0.0
 0005117,-0.00000164,-0.00000945,0.00006739,-0.00000351,0.00002331,-0.0
 0000541,-0.00000946,0.00002924,0.00001785,0.00002055,0.00002594,-0.000
 00294,-0.03141914,0.01195777,0.05545202,0.01027492,-0.01318955,-0.0339
 3985,0.10367634,0.00016406,-0.00013091,-0.00010861,-0.00052351,0.00043
 764,-0.00026363,0.00030683,-0.00037158,-0.00069117,-0.00020385,0.00023
 142,0.00014591,0.00053435,-0.00049435,0.00030106,-0.00028193,0.0003589
 3,0.00063300,0.00033645,-0.00006845,-0.00017546,-0.00031677,-0.0001021
 1,0.00007533,0.00001443,0.00006908,0.00004130,-0.00013183,-0.00057945,
 -0.00012054,0.00000123,0.00022483,-0.00011622,-0.00001344,-0.00000291,
 -0.00000881,0.00000430,-0.00000279,0.00000243,-0.00000439,-0.00000127,
 0.00000052,-0.00000047,-0.00000067,-0.00000513,-0.00001864,-0.00000446
 ,0.00001231,-0.00008070,-0.00000595,0.00003797,0.00000173,-0.00004058,
 -0.00005858,0.00031851,0.00020013,0.00003507,-0.00420549,0.00083880,0.
 00019852,-0.00003267,0.00047884,0.00006300,0.00006381,-0.00009946,0.00
 010089,0.00021782,-0.00015172,-0.00003209,0.00000553,0.00006480,-0.000
 04979,-0.00000425,0.00001467,0.00000453,-0.00002410,-0.00000669,0.0000
 0416,0.00008320,0.00002880,-0.00000009,0.00000706,-0.00000422,-0.00000
 255,-0.00000950,-0.00000838,0.00000108,-0.00001026,-0.00000852,0.00000
 521,0.00014061,-0.00006103,-0.00008136,0.00051881,0.00005171,-0.000095
 86,0.00385862,-0.00191002,0.00633714,0.00727524,0.00431025,-0.03634878
 ,-0.00057197,0.00042690,0.00009706,-0.00043603,-0.00017190,0.00001397,
 0.00725111,-0.01526296,-0.00696013,-0.00440811,-0.00296106,0.00504966,
 0.00055216,-0.00051435,-0.00000894,0.00016648,-0.00019757,0.00007867,0
 .00005871,0.00006490,-0.00003131,0.00012769,0.00015308,-0.00000103,-0.
 00003331,-0.00002654,0.00018398,-0.00000078,0.00024746,0.00002980,0.03
 535271,-0.15422308,-0.11127653,0.00007584,-0.00001440,-0.00006772,0.00
 001931,0.00000812,-0.00003155,0.00000056,0.00003744,-0.00007707,0.0000
 3143,-0.00007971,0.00002225,0.00005426,-0.00011715,-0.00007749,-0.0000
 3478,-0.00006784,0.00000558,0.00040893,0.01994574,0.00725173,-0.007488
 59,0.01542824,-0.00751579,-0.03911643,0.13407030,0.00008687,-0.0000601
 0,-0.00003566,-0.00031068,0.00025930,-0.00016531,0.00017652,-0.0002132
 9,-0.00039904,-0.00013474,0.00014748,0.00005267,0.00034118,-0.00031673
 ,0.00019693,-0.00017513,0.00021831,0.00036087,0.00021435,-0.00005292,-
 0.00012575,-0.00018238,-0.00004293,0.00001599,0.00005364,0.00002605,0.
 00007932,-0.00036959,-0.00054869,-0.00028233,0.00005509,0.00020246,-0.
 00012040,-0.00000859,-0.00000169,-0.00000814,0.00000411,-0.00000212,0.
 00000087,-0.00000250,-0.00000072,-0.00000004,-0.00000142,0.00000107,-0
 .00000307,-0.00002330,0.00000269,0.00000620,-0.00006765,-0.00000827,0.
 00001562,-0.00003629,-0.00006487,0.00002865,0.00057195,0.00011952,0.00
 038192,-0.00199063,0.00101172,-0.00017716,0.00008681,0.00039610,0.0001
 3136,0.00003011,-0.00009557,0.00008810,0.00011721,-0.00006811,-0.00005
 655,0.00001059,0.00005193,-0.00004320,0.00002152,0.00001070,0.00002126
 ,-0.00009651,-0.00003211,0.00006552,0.00003652,-0.00003763,-0.00016541
 ,0.00000270,-0.00000569,-0.00000154,-0.00000404,-0.00000972,0.00000458
 ,-0.00000357,-0.00000790,0.00000326,0.00004801,-0.00007290,0.00000023,
 0.00090278,-0.00028580,-0.00020117,0.00330867,-0.00127161,0.00586069,0
 .00412744,0.00348722,-0.01762822,-0.00022921,0.00023879,-0.00005094,-0
 .00091345,0.00007891,-0.00012750,0.00269657,-0.00690152,-0.00165662,-0
 .00413636,-0.00223471,0.00394435,0.00024671,-0.00025922,0.00003791,0.0
 0008147,-0.00011308,0.00008098,0.00015659,-0.00010627,0.00009779,0.000
 22234,0.00009203,0.00002139,-0.00006004,0.00006982,0.00023093,-0.00000
 947,0.00015298,-0.00003978,0.05168273,-0.11240293,-0.23946460,0.000148
 97,-0.00004386,-0.00009475,0.00001547,-0.00003695,-0.00004904,0.000018
 61,0.00000455,-0.00006571,0.00002890,-0.00005983,0.00004673,0.00002757
 ,-0.00005863,-0.00002582,-0.00002747,-0.00004589,0.00001813,0.04581124
 ,-0.00459289,-0.03885415,-0.02097126,-0.01999059,-0.07557801,-0.081578
 97,0.14347412,0.36362766\\-0.00000268,0.00002753,0.00004094,-0.0000111
 6,-0.00000182,0.00000926,-0.00001384,0.00000999,0.00001646,0.00003296,
 0.00003231,-0.00000913,-0.00002752,-0.00001587,0.00000012,0.00001177,-
 0.00006857,-0.00005510,-0.00002175,-0.00006450,0.00006066,0.00000262,0
 .00005645,0.00000743,0.00004836,-0.00000171,-0.00003371,-0.00001894,-0
 .00003860,-0.00012150,0.00004912,-0.00002013,0.00008766,-0.00000033,0.
 00001987,0.00002461,0.00001333,-0.00000551,0.00002073,-0.00000056,-0.0
 0002087,0.00000505,0.00000792,-0.00001266,-0.00001310,-0.00008664,0.00
 010145,-0.00001294,0.00000455,0.00003486,-0.00006165,0.00001228,-0.000
 01163,-0.00003495,0.00002800,0.00005964,0.00013478,0.00000619,0.000020
 80,-0.00001097,-0.00000526,0.00002244,-0.00002195,0.00000959,0.0000280
 4,-0.00004511,-0.00000202,-0.00000380,0.00000665,-0.00001823,0.0000284
 5,0.00001544,0.00000102,0.00002053,-0.00002039,-0.00000439,-0.00001559
 ,-0.00002946,-0.00000823,0.00001542,-0.00000584,0.00000461,0.00001482,
 0.00000793,-0.00001377,0.00001136,0.00000449,-0.00000866,0.00000553,-0
 .00002789,-0.00001076,0.00000290,0.00003561,0.00003959,0.00000866,0.00
 000568,0.00003690,0.00000172,0.00001816,0.00008866,0.00000435,-0.00005
 562,-0.00000522,-0.00000305,0.00006247,-0.00000569,0.00004002,-0.00003
 281,-0.00013700,-0.00003934,-0.00003694,-0.00003874,-0.00000418,-0.000
 00850,-0.00001980,-0.00000225,-0.00001551,0.00001501,0.00000115,0.0000
 2465,0.00003267,-0.00007232,0.00005111,0.00000124,-0.00002319,0.000031
 35,-0.00001185,-0.00000433,0.00000104,-0.00000405,0.00000450,0.0000321
 6,0.00000241,-0.00005603,0.00002523,0.00004932,-0.00003093,0.00000327,
 0.00000112,-0.00001309,-0.00000394,-0.00000102,-0.00002285,0.00000147,
 -0.00000052,-0.00001815,-0.00001513,-0.00001732,-0.00000492,0.00002532
 ,0.00001425,-0.00000693,0.00000963,-0.00001678,0.00000331,-0.00004817,
 -0.00001366,0.00001400,-0.00003273,0.00001292,-0.00000732,-0.00001633\
 \\@


 IF YOU GIVE A BOY AND A PIG EVERYTHING THEY WANT,
 YOU'LL GET A BAD BOY AND A GOOD PIG.
 Job cpu time:       1 days 20 hours 55 minutes 14.5 seconds.
 Elapsed time:       0 days  1 hours 52 minutes 51.9 seconds.
 File lengths (MBytes):  RWF=   8036 Int=      0 D2E=      0 Chk=     64 Scr=      8
 Normal termination of Gaussian 16 at Tue Jan 28 17:55:45 2025.
