 Entering Gaussian System, Link 0=/sysapps/ubuntu-applications/gaussian-new/avx/g16//g16
 Input=preplx.in
 Output=preplx.log
 Initial command:
 /sysapps/ubuntu-applications/gaussian-new/avx/g16/l1.exe "/data/temp-scratch/sgozem/290077/Gau-583348.inp" -scrdir="/data/temp-scratch/sgozem/290077/"
 Entering Link 1 = /sysapps/ubuntu-applications/gaussian-new/avx/g16/l1.exe PID=    583350.
  
 Copyright (c) 1988,1990,1992,1993,1995,1998,2003,2009,2016,
            Gaussian, Inc.  All Rights Reserved.
  
 This is part of the Gaussian(R) 16 program.  It is based on
 the Gaussian(R) 09 system (copyright 2009, Gaussian, Inc.),
 the Gaussian(R) 03 system (copyright 2003, Gaussian, Inc.),
 the Gaussian(R) 98 system (copyright 1998, Gaussian, Inc.),
 the Gaussian(R) 94 system (copyright 1995, Gaussian, Inc.),
 the Gaussian 92(TM) system (copyright 1992, Gaussian, Inc.),
 the Gaussian 90(TM) system (copyright 1990, Gaussian, Inc.),
 the Gaussian 88(TM) system (copyright 1988, Gaussian, Inc.),
 the Gaussian 86(TM) system (copyright 1986, Carnegie Mellon
 University), and the Gaussian 82(TM) system (copyright 1983,
 Carnegie Mellon University). Gaussian is a federally registered
 trademark of Gaussian, Inc.
  
 This software contains proprietary and confidential information,
 including trade secrets, belonging to Gaussian, Inc.
  
 This software is provided under written license and may be
 used, copied, transmitted, or stored only in accord with that
 written license.
  
 The following legend is applicable only to US Government
 contracts under FAR:
  
                    RESTRICTED RIGHTS LEGEND
  
 Use, reproduction and disclosure by the US Government is
 subject to restrictions as set forth in subparagraphs (a)
 and (c) of the Commercial Computer Software - Restricted
 Rights clause in FAR 52.227-19.
  
 Gaussian, Inc.
 340 Quinnipiac St., Bldg. 40, Wallingford CT 06492
  
  
 ---------------------------------------------------------------
 Warning -- This program may not be used in any manner that
 competes with the business of Gaussian, Inc. or will provide
 assistance to any competitor of Gaussian, Inc.  The licensee
 of this program is prohibited from giving any competitor of
 Gaussian, Inc. access to this program.  By using this program,
 the user acknowledges that Gaussian, Inc. is engaged in the
 business of creating and licensing software in the field of
 computational chemistry and represents and warrants to the
 licensee that it is not a competitor of Gaussian, Inc. and that
 it will not use this program in any manner prohibited above.
 ---------------------------------------------------------------
  

 Cite this work as:
 Gaussian 16, Revision A.03,
 M. J. Frisch, G. W. Trucks, H. B. Schlegel, G. E. Scuseria, 
 M. A. Robb, J. R. Cheeseman, G. Scalmani, V. Barone, 
 G. A. Petersson, H. Nakatsuji, X. Li, M. Caricato, A. V. Marenich, 
 J. Bloino, B. G. Janesko, R. Gomperts, B. Mennucci, H. P. Hratchian, 
 J. V. Ortiz, A. F. Izmaylov, J. L. Sonnenberg, D. Williams-Young, 
 F. Ding, F. Lipparini, F. Egidi, J. Goings, B. Peng, A. Petrone, 
 T. Henderson, D. Ranasinghe, V. G. Zakrzewski, J. Gao, N. Rega, 
 G. Zheng, W. Liang, M. Hada, M. Ehara, K. Toyota, R. Fukuda, 
 J. Hasegawa, M. Ishida, T. Nakajima, Y. Honda, O. Kitao, H. Nakai, 
 T. Vreven, K. Throssell, J. A. Montgomery, Jr., J. E. Peralta, 
 F. Ogliaro, M. J. Bearpark, J. J. Heyd, E. N. Brothers, K. N. Kudin, 
 V. N. Staroverov, T. A. Keith, R. Kobayashi, J. Normand, 
 K. Raghavachari, A. P. Rendell, J. C. Burant, S. S. Iyengar, 
 J. Tomasi, M. Cossi, J. M. Millam, M. Klene, C. Adamo, R. Cammi, 
 J. W. Ochterski, R. L. Martin, K. Morokuma, O. Farkas, 
 J. B. Foresman, and D. J. Fox, Gaussian, Inc., Wallingford CT, 2016.
 
 ******************************************
 Gaussian 16:  ES64L-G16RevA.03 25-Dec-2016
                26-Apr-2025 
 ******************************************
 %chk=preplx.chk
 %mem=616Gb
 %nprocshared=24
 Will use up to   24 processors via shared memory.
 ----------------------------------------------------------------------
 #P UMN15/genecp scf=(maxcyc=500) opt scrf=(smd,solvent=DiChloroEthane)
 ----------------------------------------------------------------------
 1/18=20,19=15,26=3,38=1/1,3;
 2/9=110,12=2,17=6,18=5,40=1/2;
 3/5=7,11=2,16=1,17=8,25=1,30=1,70=32201,71=1,72=10,74=-73,116=2/1,2,3;
 4//1;
 5/5=2,7=500,38=5,53=10/2;
 6/7=2,8=2,9=2,10=2,28=1/1;
 7//1,2,3,16;
 1/18=20,19=15,26=3/3(2);
 2/9=110/2;
 99//99;
 2/9=110/2;
 3/5=7,6=1,11=2,16=1,17=8,25=1,30=1,70=32205,71=1,72=10,74=-73,82=7,116=2/1,2,3;
 4/5=5,16=3,69=1/1;
 5/5=2,7=500,38=5,53=10/2;
 7//1,2,3,16;
 1/18=20,19=15,26=3/3(-5);
 2/9=110/2;
 6/7=2,8=2,9=2,10=2,19=2,28=1/1;
 99/9=1/99;
 Leave Link    1 at Sat Apr 26 20:07:57 2025, MaxMem= 82678120448 cpu:               3.4 elap:               0.2
 (Enter /sysapps/ubuntu-applications/gaussian-new/avx/g16/l101.exe)
 ---
 Opt
 ---
 Symbolic Z-matrix:
 Charge =  0 Multiplicity = 1
 C                     4.78116  -0.84546   0.92407 
 C                     6.11411  -0.61528   0.56065 
 C                     7.12937  -0.68289   1.51608 
 C                     6.81904  -1.0008    2.83827 
 C                     5.49662  -1.28924   3.19324 
 C                     4.48308  -1.22718   2.23933 
 C                     2.31334  -0.44294  -0.09371 
 C                     1.57896  -0.18805  -1.39579 
 C                     1.61995   0.1241    1.12705 
 H                     6.35591  -0.37437  -0.47779 
 H                     8.16344  -0.48825   1.22397 
 H                     7.60882  -1.04713   3.5915 
 H                     5.25601  -1.5749    4.2196 
 H                     3.46132  -1.4921    2.51979 
 O                     0.41188   0.01469   1.31982 
 O                     0.35197  -0.09119  -1.4516 
 O                     2.34037  -0.17618  -2.43522 
 O                     2.41038   0.74326   1.94136 
 C                     1.73995   0.04789  -3.71999 
 C                     1.88609   1.25973   3.17439 
 H                     2.56785   0.10833  -4.43213 
 H                     1.17333   0.98898  -3.6978 
 H                     1.06941  -0.7855   -3.96577 
 H                     2.72774   1.75718   3.66775 
 H                     1.5095    0.43082   3.78844 
 H                     1.07195   1.96682   2.96473 
 O                    -2.52191   0.18375   1.86573 
 O                    -2.72237   0.59377  -1.46099 
 O                    -0.26935  -2.51919   0.37504 
 S                    -0.90071  -3.28932  -0.75093 
 S                    -3.49696  -0.95428   1.955 
 S                    -2.15969   1.97297  -1.27203 
 O                    -1.62472  -2.26032  -1.55759 
 O                    -1.589    -4.50829  -0.42057 
 O                    -3.15837  -1.82054   0.78361 
 O                    -3.67642  -1.57941   3.23665 
 O                    -1.1785    1.84453  -0.15693 
 O                    -1.74859   2.67652  -2.46214 
 C                    -3.54254   2.96783  -0.56425 
 C                    -5.12076  -0.1983    1.521 
 C                     0.52911  -3.81532  -1.78984 
 F                    -3.18917   4.23983  -0.6017 
 F                    -3.76384   2.60859   0.68449 
 F                    -4.62733   2.78048  -1.28641 
 F                    -5.09695   0.22109   0.26906 
 F                    -5.34664   0.81831   2.3293 
 F                    -6.06373  -1.1063    1.66777 
 F                     1.10274  -2.7612   -2.34893 
 F                     0.09163  -4.62385  -2.73413 
 F                     1.39989  -4.44329  -1.02883 
 C                     3.75097  -0.79199  -0.1552 
 H                     4.17361  -0.7388   -1.16271 
 C                     4.11655   1.98177  -0.26761 
 C                     4.78555   1.63969  -1.46328 
 C                     4.804     2.1323    0.95909 
 C                     1.24056   4.20217   0.41017 
 C                     1.22491   3.34884  -1.79939 
 C                     0.62121   4.15676  -0.82912 
 H                     0.85026   4.79841   1.23581 
 H                     0.79501   3.23852  -2.79757 
 H                    -0.3037    4.69188  -1.04429 
 N                     5.35156   1.3137   -2.42998 
 N                     5.29765   2.29316   2.00425 
 N                     2.91994   2.72768  -0.40206 
 N                     2.3297    2.65152  -1.59113 
 C                     2.40743   3.4762    0.60648 
 H                     2.96987   3.49704   1.5397 
 Lu                   -1.36606  -0.5225    0.00054 
 O                     2.71648  -1.78812  -0.03928 
 
 Add virtual bond connecting atoms C54        and H52        Dist= 4.68D+00.
 Add virtual bond connecting atoms H60        and H22        Dist= 4.63D+00.
 ITRead=  0  0  0  0  0  0  0  0  0  0  0  0  0  0  0  0  0  0  0  0
 ITRead=  0  0  0  0  0  0  0  0  0  0  0  0  0  0  0  0  0  0  0  0
 ITRead=  0  0  0  0  0  0  0  0  0  0  0  0  0  0  0  0  0  0  0  0
 ITRead=  0  0  0  0  0  0  0  0  0
 MicOpt= -1 -1 -1 -1 -1 -1 -1 -1 -1 -1 -1 -1 -1 -1 -1 -1 -1 -1 -1 -1
 MicOpt= -1 -1 -1 -1 -1 -1 -1 -1 -1 -1 -1 -1 -1 -1 -1 -1 -1 -1 -1 -1
 MicOpt= -1 -1 -1 -1 -1 -1 -1 -1 -1 -1 -1 -1 -1 -1 -1 -1 -1 -1 -1 -1
 MicOpt= -1 -1 -1 -1 -1 -1 -1 -1 -1
 NAtoms=     69 NQM=       69 NQMF=       0 NMMI=      0 NMMIF=      0
                NMic=       0 NMicF=      0.
                    Isotopes and Nuclear Properties:
 (Nuclear quadrupole moments (NQMom) in fm**2, nuclear magnetic moments (NMagM)
  in nuclear magnetons)

  Atom         1           2           3           4           5           6           7           8           9          10
 IAtWgt=          12          12          12          12          12          12          12          12          12           1
 AtmWgt=  12.0000000  12.0000000  12.0000000  12.0000000  12.0000000  12.0000000  12.0000000  12.0000000  12.0000000   1.0078250
 NucSpn=           0           0           0           0           0           0           0           0           0           1
 AtZEff=  -0.0000000  -0.0000000  -0.0000000  -0.0000000  -0.0000000  -0.0000000  -0.0000000  -0.0000000  -0.0000000  -0.0000000
 NQMom=    0.0000000   0.0000000   0.0000000   0.0000000   0.0000000   0.0000000   0.0000000   0.0000000   0.0000000   0.0000000
 NMagM=    0.0000000   0.0000000   0.0000000   0.0000000   0.0000000   0.0000000   0.0000000   0.0000000   0.0000000   2.7928460
 AtZNuc=   6.0000000   6.0000000   6.0000000   6.0000000   6.0000000   6.0000000   6.0000000   6.0000000   6.0000000   1.0000000

  Atom        11          12          13          14          15          16          17          18          19          20
 IAtWgt=           1           1           1           1          16          16          16          16          12          12
 AtmWgt=   1.0078250   1.0078250   1.0078250   1.0078250  15.9949146  15.9949146  15.9949146  15.9949146  12.0000000  12.0000000
 NucSpn=           1           1           1           1           0           0           0           0           0           0
 AtZEff=  -0.0000000  -0.0000000  -0.0000000  -0.0000000  -0.0000000  -0.0000000  -0.0000000  -0.0000000  -0.0000000  -0.0000000
 NQMom=    0.0000000   0.0000000   0.0000000   0.0000000   0.0000000   0.0000000   0.0000000   0.0000000   0.0000000   0.0000000
 NMagM=    2.7928460   2.7928460   2.7928460   2.7928460   0.0000000   0.0000000   0.0000000   0.0000000   0.0000000   0.0000000
 AtZNuc=   1.0000000   1.0000000   1.0000000   1.0000000   8.0000000   8.0000000   8.0000000   8.0000000   6.0000000   6.0000000

  Atom        21          22          23          24          25          26          27          28          29          30
 IAtWgt=           1           1           1           1           1           1          16          16          16          32
 AtmWgt=   1.0078250   1.0078250   1.0078250   1.0078250   1.0078250   1.0078250  15.9949146  15.9949146  15.9949146  31.9720718
 NucSpn=           1           1           1           1           1           1           0           0           0           0
 AtZEff=  -0.0000000  -0.0000000  -0.0000000  -0.0000000  -0.0000000  -0.0000000  -0.0000000  -0.0000000  -0.0000000  -0.0000000
 NQMom=    0.0000000   0.0000000   0.0000000   0.0000000   0.0000000   0.0000000   0.0000000   0.0000000   0.0000000   0.0000000
 NMagM=    2.7928460   2.7928460   2.7928460   2.7928460   2.7928460   2.7928460   0.0000000   0.0000000   0.0000000   0.0000000
 AtZNuc=   1.0000000   1.0000000   1.0000000   1.0000000   1.0000000   1.0000000   8.0000000   8.0000000   8.0000000  16.0000000

  Atom        31          32          33          34          35          36          37          38          39          40
 IAtWgt=          32          32          16          16          16          16          16          16          12          12
 AtmWgt=  31.9720718  31.9720718  15.9949146  15.9949146  15.9949146  15.9949146  15.9949146  15.9949146  12.0000000  12.0000000
 NucSpn=           0           0           0           0           0           0           0           0           0           0
 AtZEff=  -0.0000000  -0.0000000  -0.0000000  -0.0000000  -0.0000000  -0.0000000  -0.0000000  -0.0000000  -0.0000000  -0.0000000
 NQMom=    0.0000000   0.0000000   0.0000000   0.0000000   0.0000000   0.0000000   0.0000000   0.0000000   0.0000000   0.0000000
 NMagM=    0.0000000   0.0000000   0.0000000   0.0000000   0.0000000   0.0000000   0.0000000   0.0000000   0.0000000   0.0000000
 AtZNuc=  16.0000000  16.0000000   8.0000000   8.0000000   8.0000000   8.0000000   8.0000000   8.0000000   6.0000000   6.0000000

  Atom        41          42          43          44          45          46          47          48          49          50
 IAtWgt=          12          19          19          19          19          19          19          19          19          19
 AtmWgt=  12.0000000  18.9984032  18.9984032  18.9984032  18.9984032  18.9984032  18.9984032  18.9984032  18.9984032  18.9984032
 NucSpn=           0           1           1           1           1           1           1           1           1           1
 AtZEff=  -0.0000000  -0.0000000  -0.0000000  -0.0000000  -0.0000000  -0.0000000  -0.0000000  -0.0000000  -0.0000000  -0.0000000
 NQMom=    0.0000000   0.0000000   0.0000000   0.0000000   0.0000000   0.0000000   0.0000000   0.0000000   0.0000000   0.0000000
 NMagM=    0.0000000   2.6288670   2.6288670   2.6288670   2.6288670   2.6288670   2.6288670   2.6288670   2.6288670   2.6288670
 AtZNuc=   6.0000000   9.0000000   9.0000000   9.0000000   9.0000000   9.0000000   9.0000000   9.0000000   9.0000000   9.0000000

  Atom        51          52          53          54          55          56          57          58          59          60
 IAtWgt=          12           1          12          12          12          12          12          12           1           1
 AtmWgt=  12.0000000   1.0078250  12.0000000  12.0000000  12.0000000  12.0000000  12.0000000  12.0000000   1.0078250   1.0078250
 NucSpn=           0           1           0           0           0           0           0           0           1           1
 AtZEff=  -0.0000000  -0.0000000  -0.0000000  -0.0000000  -0.0000000  -0.0000000  -0.0000000  -0.0000000  -0.0000000  -0.0000000
 NQMom=    0.0000000   0.0000000   0.0000000   0.0000000   0.0000000   0.0000000   0.0000000   0.0000000   0.0000000   0.0000000
 NMagM=    0.0000000   2.7928460   0.0000000   0.0000000   0.0000000   0.0000000   0.0000000   0.0000000   2.7928460   2.7928460
 AtZNuc=   6.0000000   1.0000000   6.0000000   6.0000000   6.0000000   6.0000000   6.0000000   6.0000000   1.0000000   1.0000000

  Atom        61          62          63          64          65          66          67          68          69
 IAtWgt=           1          14          14          14          14          12           1         175          16
 AtmWgt=   1.0078250  14.0030740  14.0030740  14.0030740  14.0030740  12.0000000   1.0078250 174.9409000  15.9949146
 NucSpn=           1           2           2           2           2           0           1           7           0
 AtZEff=  -0.0000000  -0.0000000  -0.0000000  -0.0000000  -0.0000000  -0.0000000  -0.0000000  -0.0000000  -0.0000000
 NQMom=    0.0000000   2.0440000   2.0440000   2.0440000   2.0440000   0.0000000   0.0000000 349.0000000   0.0000000
 NMagM=    2.7928460   0.4037610   0.4037610   0.4037610   0.4037610   0.0000000   2.7928460   2.2327000   0.0000000
 AtZNuc=   1.0000000   7.0000000   7.0000000   7.0000000   7.0000000   6.0000000   1.0000000  71.0000000   8.0000000
 Leave Link  101 at Sat Apr 26 20:07:59 2025, MaxMem= 82678120448 cpu:              21.9 elap:               1.1
 (Enter /sysapps/ubuntu-applications/gaussian-new/avx/g16/l103.exe)

 GradGradGradGradGradGradGradGradGradGradGradGradGradGradGradGradGradGrad
 Berny optimization.
 Initialization pass.
                           ----------------------------
                           !    Initial Parameters    !
                           ! (Angstroms and Degrees)  !
 --------------------------                            --------------------------
 ! Name  Definition              Value          Derivative Info.                !
 --------------------------------------------------------------------------------
 ! R1    R(1,2)                  1.4007         estimate D2E/DX2                !
 ! R2    R(1,6)                  1.4016         estimate D2E/DX2                !
 ! R3    R(1,51)                 1.493          estimate D2E/DX2                !
 ! R4    R(2,3)                  1.3958         estimate D2E/DX2                !
 ! R5    R(2,10)                 1.0931         estimate D2E/DX2                !
 ! R6    R(3,4)                  1.3948         estimate D2E/DX2                !
 ! R7    R(3,11)                 1.092          estimate D2E/DX2                !
 ! R8    R(4,5)                  1.3993         estimate D2E/DX2                !
 ! R9    R(4,12)                 1.0924         estimate D2E/DX2                !
 ! R10   R(5,6)                  1.3932         estimate D2E/DX2                !
 ! R11   R(5,13)                 1.0922         estimate D2E/DX2                !
 ! R12   R(6,14)                 1.0922         estimate D2E/DX2                !
 ! R13   R(7,8)                  1.5165         estimate D2E/DX2                !
 ! R14   R(7,9)                  1.5141         estimate D2E/DX2                !
 ! R15   R(7,51)                 1.4807         estimate D2E/DX2                !
 ! R16   R(7,69)                 1.4053         estimate D2E/DX2                !
 ! R17   R(8,16)                 1.2321         estimate D2E/DX2                !
 ! R18   R(8,17)                 1.2885         estimate D2E/DX2                !
 ! R19   R(9,15)                 1.2282         estimate D2E/DX2                !
 ! R20   R(9,18)                 1.2928         estimate D2E/DX2                !
 ! R21   R(15,68)                2.2782         estimate D2E/DX2                !
 ! R22   R(16,68)                2.2905         estimate D2E/DX2                !
 ! R23   R(17,19)                1.4357         estimate D2E/DX2                !
 ! R24   R(18,20)                1.436          estimate D2E/DX2                !
 ! R25   R(19,21)                1.0937         estimate D2E/DX2                !
 ! R26   R(19,22)                1.0987         estimate D2E/DX2                !
 ! R27   R(19,23)                1.0975         estimate D2E/DX2                !
 ! R28   R(20,24)                1.0951         estimate D2E/DX2                !
 ! R29   R(20,25)                1.0982         estimate D2E/DX2                !
 ! R30   R(20,26)                1.0985         estimate D2E/DX2                !
 ! R31   R(22,60)                2.4523         estimate D2E/DX2                !
 ! R32   R(27,31)                1.5013         estimate D2E/DX2                !
 ! R33   R(27,68)                2.3051         estimate D2E/DX2                !
 ! R34   R(28,32)                1.5015         estimate D2E/DX2                !
 ! R35   R(28,68)                2.2851         estimate D2E/DX2                !
 ! R36   R(29,30)                1.5032         estimate D2E/DX2                !
 ! R37   R(29,68)                2.3086         estimate D2E/DX2                !
 ! R38   R(30,33)                1.4946         estimate D2E/DX2                !
 ! R39   R(30,34)                1.4383         estimate D2E/DX2                !
 ! R40   R(30,41)                1.844          estimate D2E/DX2                !
 ! R41   R(30,68)                2.9046         estimate D2E/DX2                !
 ! R42   R(31,35)                1.4957         estimate D2E/DX2                !
 ! R43   R(31,36)                1.4372         estimate D2E/DX2                !
 ! R44   R(31,40)                1.843          estimate D2E/DX2                !
 ! R45   R(31,68)                2.9235         estimate D2E/DX2                !
 ! R46   R(32,37)                1.4909         estimate D2E/DX2                !
 ! R47   R(32,38)                1.4423         estimate D2E/DX2                !
 ! R48   R(32,39)                1.8447         estimate D2E/DX2                !
 ! R49   R(32,68)                2.9115         estimate D2E/DX2                !
 ! R50   R(33,68)                2.3483         estimate D2E/DX2                !
 ! R51   R(35,68)                2.3474         estimate D2E/DX2                !
 ! R52   R(37,68)                2.3797         estimate D2E/DX2                !
 ! R53   R(39,42)                1.3207         estimate D2E/DX2                !
 ! R54   R(39,43)                1.3181         estimate D2E/DX2                !
 ! R55   R(39,44)                1.3166         estimate D2E/DX2                !
 ! R56   R(40,45)                1.3205         estimate D2E/DX2                !
 ! R57   R(40,46)                1.3183         estimate D2E/DX2                !
 ! R58   R(40,47)                1.3173         estimate D2E/DX2                !
 ! R59   R(41,48)                1.3239         estimate D2E/DX2                !
 ! R60   R(41,49)                1.3179         estimate D2E/DX2                !
 ! R61   R(41,50)                1.316          estimate D2E/DX2                !
 ! R62   R(51,52)                1.0939         estimate D2E/DX2                !
 ! R63   R(51,69)                1.4408         estimate D2E/DX2                !
 ! R64   R(52,54)                2.4743         estimate D2E/DX2                !
 ! R65   R(53,54)                1.4122         estimate D2E/DX2                !
 ! R66   R(53,55)                1.4142         estimate D2E/DX2                !
 ! R67   R(53,64)                1.4164         estimate D2E/DX2                !
 ! R68   R(54,62)                1.1667         estimate D2E/DX2                !
 ! R69   R(55,63)                1.167          estimate D2E/DX2                !
 ! R70   R(56,58)                1.3862         estimate D2E/DX2                !
 ! R71   R(56,59)                1.0906         estimate D2E/DX2                !
 ! R72   R(56,66)                1.3882         estimate D2E/DX2                !
 ! R73   R(57,58)                1.3995         estimate D2E/DX2                !
 ! R74   R(57,60)                1.0924         estimate D2E/DX2                !
 ! R75   R(57,65)                1.3229         estimate D2E/DX2                !
 ! R76   R(58,61)                1.09           estimate D2E/DX2                !
 ! R77   R(64,65)                1.3297         estimate D2E/DX2                !
 ! R78   R(64,66)                1.3565         estimate D2E/DX2                !
 ! R79   R(66,67)                1.0898         estimate D2E/DX2                !
 ! A1    A(2,1,6)              119.382          estimate D2E/DX2                !
 ! A2    A(2,1,51)             117.5954         estimate D2E/DX2                !
 ! A3    A(6,1,51)             122.7773         estimate D2E/DX2                !
 ! A4    A(1,2,3)              120.4414         estimate D2E/DX2                !
 ! A5    A(1,2,10)             119.5528         estimate D2E/DX2                !
 ! A6    A(3,2,10)             120.0044         estimate D2E/DX2                !
 ! A7    A(2,3,4)              119.8729         estimate D2E/DX2                !
 ! A8    A(2,3,11)             119.8047         estimate D2E/DX2                !
 ! A9    A(4,3,11)             120.3223         estimate D2E/DX2                !
 ! A10   A(3,4,5)              119.8491         estimate D2E/DX2                !
 ! A11   A(3,4,12)             120.1612         estimate D2E/DX2                !
 ! A12   A(5,4,12)             119.9751         estimate D2E/DX2                !
 ! A13   A(4,5,6)              120.3079         estimate D2E/DX2                !
 ! A14   A(4,5,13)             120.0332         estimate D2E/DX2                !
 ! A15   A(6,5,13)             119.6558         estimate D2E/DX2                !
 ! A16   A(1,6,5)              119.995          estimate D2E/DX2                !
 ! A17   A(1,6,14)             120.3976         estimate D2E/DX2                !
 ! A18   A(5,6,14)             119.6008         estimate D2E/DX2                !
 ! A19   A(8,7,9)              114.0508         estimate D2E/DX2                !
 ! A20   A(8,7,51)             118.3043         estimate D2E/DX2                !
 ! A21   A(8,7,69)             109.4544         estimate D2E/DX2                !
 ! A22   A(9,7,51)             124.4995         estimate D2E/DX2                !
 ! A23   A(9,7,69)             117.2975         estimate D2E/DX2                !
 ! A24   A(7,8,16)             122.3015         estimate D2E/DX2                !
 ! A25   A(7,8,17)             114.0804         estimate D2E/DX2                !
 ! A26   A(16,8,17)            123.4508         estimate D2E/DX2                !
 ! A27   A(7,9,15)             122.9295         estimate D2E/DX2                !
 ! A28   A(7,9,18)             114.0304         estimate D2E/DX2                !
 ! A29   A(15,9,18)            123.0374         estimate D2E/DX2                !
 ! A30   A(9,15,68)            134.2447         estimate D2E/DX2                !
 ! A31   A(8,16,68)            134.7051         estimate D2E/DX2                !
 ! A32   A(8,17,19)            118.4357         estimate D2E/DX2                !
 ! A33   A(9,18,20)            119.3344         estimate D2E/DX2                !
 ! A34   A(17,19,21)           105.9451         estimate D2E/DX2                !
 ! A35   A(17,19,22)           109.3461         estimate D2E/DX2                !
 ! A36   A(17,19,23)           109.7174         estimate D2E/DX2                !
 ! A37   A(21,19,22)           110.8662         estimate D2E/DX2                !
 ! A38   A(21,19,23)           111.0151         estimate D2E/DX2                !
 ! A39   A(22,19,23)           109.8675         estimate D2E/DX2                !
 ! A40   A(18,20,24)           105.6416         estimate D2E/DX2                !
 ! A41   A(18,20,25)           109.5033         estimate D2E/DX2                !
 ! A42   A(18,20,26)           109.7685         estimate D2E/DX2                !
 ! A43   A(24,20,25)           110.764          estimate D2E/DX2                !
 ! A44   A(24,20,26)           111.2961         estimate D2E/DX2                !
 ! A45   A(25,20,26)           109.7813         estimate D2E/DX2                !
 ! A46   A(19,22,60)           150.7701         estimate D2E/DX2                !
 ! A47   A(29,30,33)           104.7746         estimate D2E/DX2                !
 ! A48   A(29,30,34)           117.5909         estimate D2E/DX2                !
 ! A49   A(29,30,41)           104.0336         estimate D2E/DX2                !
 ! A50   A(33,30,34)           118.4009         estimate D2E/DX2                !
 ! A51   A(33,30,41)           105.5409         estimate D2E/DX2                !
 ! A52   A(34,30,41)           104.9934         estimate D2E/DX2                !
 ! A53   A(34,30,68)           132.1604         estimate D2E/DX2                !
 ! A54   A(41,30,68)           122.8            estimate D2E/DX2                !
 ! A55   A(27,31,35)           104.2074         estimate D2E/DX2                !
 ! A56   A(27,31,36)           117.6351         estimate D2E/DX2                !
 ! A57   A(27,31,40)           104.3176         estimate D2E/DX2                !
 ! A58   A(35,31,36)           118.3425         estimate D2E/DX2                !
 ! A59   A(35,31,40)           104.6306         estimate D2E/DX2                !
 ! A60   A(36,31,40)           106.1648         estimate D2E/DX2                !
 ! A61   A(36,31,68)           138.7126         estimate D2E/DX2                !
 ! A62   A(40,31,68)           115.0986         estimate D2E/DX2                !
 ! A63   A(28,32,37)           105.1667         estimate D2E/DX2                !
 ! A64   A(28,32,38)           116.8092         estimate D2E/DX2                !
 ! A65   A(28,32,39)           105.2331         estimate D2E/DX2                !
 ! A66   A(37,32,38)           118.1377         estimate D2E/DX2                !
 ! A67   A(37,32,39)           104.6461         estimate D2E/DX2                !
 ! A68   A(38,32,39)           105.4963         estimate D2E/DX2                !
 ! A69   A(38,32,68)           134.511          estimate D2E/DX2                !
 ! A70   A(39,32,68)           119.9264         estimate D2E/DX2                !
 ! A71   A(32,39,42)           107.9367         estimate D2E/DX2                !
 ! A72   A(32,39,43)           110.0208         estimate D2E/DX2                !
 ! A73   A(32,39,44)           109.2964         estimate D2E/DX2                !
 ! A74   A(42,39,43)           109.5291         estimate D2E/DX2                !
 ! A75   A(42,39,44)           109.9959         estimate D2E/DX2                !
 ! A76   A(43,39,44)           110.0311         estimate D2E/DX2                !
 ! A77   A(31,40,45)           109.7333         estimate D2E/DX2                !
 ! A78   A(31,40,46)           108.8386         estimate D2E/DX2                !
 ! A79   A(31,40,47)           108.7677         estimate D2E/DX2                !
 ! A80   A(45,40,46)           109.8447         estimate D2E/DX2                !
 ! A81   A(45,40,47)           109.7221         estimate D2E/DX2                !
 ! A82   A(46,40,47)           109.913          estimate D2E/DX2                !
 ! A83   A(30,41,48)           110.2894         estimate D2E/DX2                !
 ! A84   A(30,41,49)           108.7413         estimate D2E/DX2                !
 ! A85   A(30,41,50)           108.868          estimate D2E/DX2                !
 ! A86   A(48,41,49)           109.2518         estimate D2E/DX2                !
 ! A87   A(48,41,50)           109.7216         estimate D2E/DX2                !
 ! A88   A(49,41,50)           109.9537         estimate D2E/DX2                !
 ! A89   A(1,51,7)             130.4203         estimate D2E/DX2                !
 ! A90   A(1,51,52)            113.6384         estimate D2E/DX2                !
 ! A91   A(1,51,69)            114.363          estimate D2E/DX2                !
 ! A92   A(7,51,52)            113.699          estimate D2E/DX2                !
 ! A93   A(52,51,69)           112.6522         estimate D2E/DX2                !
 ! A94   A(51,52,54)           104.7255         estimate D2E/DX2                !
 ! A95   A(54,53,55)           122.0001         estimate D2E/DX2                !
 ! A96   A(54,53,64)           116.5778         estimate D2E/DX2                !
 ! A97   A(55,53,64)           115.9083         estimate D2E/DX2                !
 ! A98   A(52,54,53)            90.7357         estimate D2E/DX2                !
 ! A99   A(52,54,62)            87.2513         estimate D2E/DX2                !
 ! A100  A(58,56,59)           122.3311         estimate D2E/DX2                !
 ! A101  A(58,56,66)           119.003          estimate D2E/DX2                !
 ! A102  A(59,56,66)           118.6619         estimate D2E/DX2                !
 ! A103  A(58,57,60)           121.4686         estimate D2E/DX2                !
 ! A104  A(58,57,65)           123.7369         estimate D2E/DX2                !
 ! A105  A(60,57,65)           114.7879         estimate D2E/DX2                !
 ! A106  A(56,58,57)           116.4875         estimate D2E/DX2                !
 ! A107  A(56,58,61)           122.6516         estimate D2E/DX2                !
 ! A108  A(57,58,61)           120.8363         estimate D2E/DX2                !
 ! A109  A(22,60,57)           111.5523         estimate D2E/DX2                !
 ! A110  A(53,64,65)           115.4495         estimate D2E/DX2                !
 ! A111  A(53,64,66)           122.6285         estimate D2E/DX2                !
 ! A112  A(65,64,66)           121.9213         estimate D2E/DX2                !
 ! A113  A(57,65,64)           118.7691         estimate D2E/DX2                !
 ! A114  A(56,66,64)           120.0663         estimate D2E/DX2                !
 ! A115  A(56,66,67)           123.0176         estimate D2E/DX2                !
 ! A116  A(64,66,67)           116.8863         estimate D2E/DX2                !
 ! A117  A(15,68,16)            74.7734         estimate D2E/DX2                !
 ! A118  A(15,68,27)            81.4024         estimate D2E/DX2                !
 ! A119  A(15,68,28)           135.923          estimate D2E/DX2                !
 ! A120  A(15,68,29)            74.886          estimate D2E/DX2                !
 ! A121  A(15,68,30)           104.442          estimate D2E/DX2                !
 ! A122  A(15,68,31)           102.5044         estimate D2E/DX2                !
 ! A123  A(15,68,32)           105.292          estimate D2E/DX2                !
 ! A124  A(15,68,33)           130.1419         estimate D2E/DX2                !
 ! A125  A(15,68,35)           122.2133         estimate D2E/DX2                !
 ! A126  A(15,68,37)            75.0641         estimate D2E/DX2                !
 ! A127  A(16,68,27)           146.2417         estimate D2E/DX2                !
 ! A128  A(16,68,28)            87.0034         estimate D2E/DX2                !
 ! A129  A(16,68,29)            84.801          estimate D2E/DX2                !
 ! A130  A(16,68,30)            83.9832         estimate D2E/DX2                !
 ! A131  A(16,68,32)            76.4646         estimate D2E/DX2                !
 ! A132  A(16,68,33)            78.5401         estimate D2E/DX2                !
 ! A133  A(16,68,35)           152.6609         estimate D2E/DX2                !
 ! A134  A(16,68,37)            73.239          estimate D2E/DX2                !
 ! A135  A(27,68,28)            94.0278         estimate D2E/DX2                !
 ! A136  A(27,68,29)           111.834          estimate D2E/DX2                !
 ! A137  A(27,68,30)           125.5576         estimate D2E/DX2                !
 ! A138  A(27,68,32)            87.3854         estimate D2E/DX2                !
 ! A139  A(27,68,33)           135.1021         estimate D2E/DX2                !
 ! A140  A(27,68,35)            61.096          estimate D2E/DX2                !
 ! A141  A(27,68,37)            77.7788         estimate D2E/DX2                !
 ! A142  A(28,68,29)           143.9212         estimate D2E/DX2                !
 ! A143  A(28,68,30)           113.2631         estimate D2E/DX2                !
 ! A144  A(28,68,31)            93.8481         estimate D2E/DX2                !
 ! A145  A(28,68,33)            82.6319         estimate D2E/DX2                !
 ! A146  A(28,68,35)            91.7363         estimate D2E/DX2                !
 ! A147  A(28,68,37)            61.2201         estimate D2E/DX2                !
 ! A148  A(29,68,31)            96.3193         estimate D2E/DX2                !
 ! A149  A(29,68,32)           160.3388         estimate D2E/DX2                !
 ! A150  A(29,68,33)            61.3098         estimate D2E/DX2                !
 ! A151  A(29,68,35)            80.2325         estimate D2E/DX2                !
 ! A152  A(29,68,37)           146.4679         estimate D2E/DX2                !
 ! A153  A(30,68,31)            98.5718         estimate D2E/DX2                !
 ! A154  A(30,68,32)           138.3363         estimate D2E/DX2                !
 ! A155  A(30,68,35)            71.4517         estimate D2E/DX2                !
 ! A156  A(30,68,37)           156.6019         estimate D2E/DX2                !
 ! A157  A(31,68,32)           102.7156         estimate D2E/DX2                !
 ! A158  A(31,68,33)           104.7139         estimate D2E/DX2                !
 ! A159  A(31,68,37)           104.3944         estimate D2E/DX2                !
 ! A160  A(32,68,33)           108.3158         estimate D2E/DX2                !
 ! A161  A(32,68,35)           114.3075         estimate D2E/DX2                !
 ! A162  A(33,68,35)            74.2187         estimate D2E/DX2                !
 ! A163  A(33,68,37)           134.4968         estimate D2E/DX2                !
 ! A164  A(35,68,37)           129.2185         estimate D2E/DX2                !
 ! A165  L(53,54,62,52,-1)     177.987          estimate D2E/DX2                !
 ! A166  L(53,55,63,1,-1)      181.8068         estimate D2E/DX2                !
 ! A167  L(16,68,31,15,-1)     177.2778         estimate D2E/DX2                !
 ! A168  L(53,54,62,52,-2)     181.411          estimate D2E/DX2                !
 ! A169  L(53,55,63,1,-2)      183.9939         estimate D2E/DX2                !
 ! A170  L(16,68,31,15,-2)     178.1006         estimate D2E/DX2                !
 ! D1    D(6,1,2,3)             -3.979          estimate D2E/DX2                !
 ! D2    D(6,1,2,10)           176.4564         estimate D2E/DX2                !
 ! D3    D(51,1,2,3)          -178.4476         estimate D2E/DX2                !
 ! D4    D(51,1,2,10)            1.9878         estimate D2E/DX2                !
 ! D5    D(2,1,6,5)              4.2118         estimate D2E/DX2                !
 ! D6    D(2,1,6,14)          -174.8483         estimate D2E/DX2                !
 ! D7    D(51,1,6,5)           178.3803         estimate D2E/DX2                !
 ! D8    D(51,1,6,14)           -0.6798         estimate D2E/DX2                !
 ! D9    D(2,1,51,7)          -151.9929         estimate D2E/DX2                !
 ! D10   D(2,1,51,52)            9.643          estimate D2E/DX2                !
 ! D11   D(2,1,51,69)          140.9208         estimate D2E/DX2                !
 ! D12   D(6,1,51,7)            33.7403         estimate D2E/DX2                !
 ! D13   D(6,1,51,52)         -164.6237         estimate D2E/DX2                !
 ! D14   D(6,1,51,69)          -33.346          estimate D2E/DX2                !
 ! D15   D(1,2,3,4)              0.9382         estimate D2E/DX2                !
 ! D16   D(1,2,3,11)          -179.1712         estimate D2E/DX2                !
 ! D17   D(10,2,3,4)          -179.4992         estimate D2E/DX2                !
 ! D18   D(10,2,3,11)            0.3915         estimate D2E/DX2                !
 ! D19   D(2,3,4,5)              1.8814         estimate D2E/DX2                !
 ! D20   D(2,3,4,12)          -179.5073         estimate D2E/DX2                !
 ! D21   D(11,3,4,5)          -178.0086         estimate D2E/DX2                !
 ! D22   D(11,3,4,12)            0.6026         estimate D2E/DX2                !
 ! D23   D(3,4,5,6)             -1.638          estimate D2E/DX2                !
 ! D24   D(3,4,5,13)           177.7163         estimate D2E/DX2                !
 ! D25   D(12,4,5,6)           179.7481         estimate D2E/DX2                !
 ! D26   D(12,4,5,13)           -0.8976         estimate D2E/DX2                !
 ! D27   D(4,5,6,1)             -1.4293         estimate D2E/DX2                !
 ! D28   D(4,5,6,14)           177.6383         estimate D2E/DX2                !
 ! D29   D(13,5,6,1)           179.214          estimate D2E/DX2                !
 ! D30   D(13,5,6,14)           -1.7184         estimate D2E/DX2                !
 ! D31   D(9,7,8,16)           -30.2498         estimate D2E/DX2                !
 ! D32   D(9,7,8,17)           154.3023         estimate D2E/DX2                !
 ! D33   D(51,7,8,16)          168.873          estimate D2E/DX2                !
 ! D34   D(51,7,8,17)           -6.5749         estimate D2E/DX2                !
 ! D35   D(69,7,8,16)          103.4009         estimate D2E/DX2                !
 ! D36   D(69,7,8,17)          -72.047          estimate D2E/DX2                !
 ! D37   D(8,7,9,15)            44.3456         estimate D2E/DX2                !
 ! D38   D(8,7,9,18)          -135.0703         estimate D2E/DX2                !
 ! D39   D(51,7,9,15)         -156.1404         estimate D2E/DX2                !
 ! D40   D(51,7,9,18)           24.4438         estimate D2E/DX2                !
 ! D41   D(69,7,9,15)          -85.5022         estimate D2E/DX2                !
 ! D42   D(69,7,9,18)           95.082          estimate D2E/DX2                !
 ! D43   D(8,7,51,1)           167.1255         estimate D2E/DX2                !
 ! D44   D(8,7,51,52)            5.4984         estimate D2E/DX2                !
 ! D45   D(9,7,51,1)             8.4096         estimate D2E/DX2                !
 ! D46   D(9,7,51,52)         -153.2175         estimate D2E/DX2                !
 ! D47   D(7,8,16,68)          -11.5057         estimate D2E/DX2                !
 ! D48   D(17,8,16,68)         163.5122         estimate D2E/DX2                !
 ! D49   D(7,8,17,19)          179.564          estimate D2E/DX2                !
 ! D50   D(16,8,17,19)           4.1756         estimate D2E/DX2                !
 ! D51   D(7,9,15,68)          -16.305          estimate D2E/DX2                !
 ! D52   D(18,9,15,68)         163.0586         estimate D2E/DX2                !
 ! D53   D(7,9,18,20)         -176.4688         estimate D2E/DX2                !
 ! D54   D(15,9,18,20)           4.1161         estimate D2E/DX2                !
 ! D55   D(9,15,68,16)         -13.9671         estimate D2E/DX2                !
 ! D56   D(9,15,68,27)        -169.8319         estimate D2E/DX2                !
 ! D57   D(9,15,68,28)         -82.9287         estimate D2E/DX2                !
 ! D58   D(9,15,68,29)          74.6714         estimate D2E/DX2                !
 ! D59   D(9,15,68,30)          65.5305         estimate D2E/DX2                !
 ! D60   D(9,15,68,31)         167.9324         estimate D2E/DX2                !
 ! D61   D(9,15,68,32)         -84.9477         estimate D2E/DX2                !
 ! D62   D(9,15,68,33)          46.1053         estimate D2E/DX2                !
 ! D63   D(9,15,68,35)         142.4697         estimate D2E/DX2                !
 ! D64   D(9,15,68,37)         -90.2744         estimate D2E/DX2                !
 ! D65   D(8,16,68,15)          28.9426         estimate D2E/DX2                !
 ! D66   D(8,16,68,27)          75.6243         estimate D2E/DX2                !
 ! D67   D(8,16,68,28)         168.3902         estimate D2E/DX2                !
 ! D68   D(8,16,68,29)         -46.7824         estimate D2E/DX2                !
 ! D69   D(8,16,68,30)         -77.8312         estimate D2E/DX2                !
 ! D70   D(8,16,68,32)         139.2263         estimate D2E/DX2                !
 ! D71   D(8,16,68,33)        -108.5261         estimate D2E/DX2                !
 ! D72   D(8,16,68,35)        -103.6263         estimate D2E/DX2                !
 ! D73   D(8,16,68,37)         107.5817         estimate D2E/DX2                !
 ! D74   D(8,17,19,21)         174.9543         estimate D2E/DX2                !
 ! D75   D(8,17,19,22)          55.4216         estimate D2E/DX2                !
 ! D76   D(8,17,19,23)         -65.139          estimate D2E/DX2                !
 ! D77   D(9,18,20,24)        -178.4196         estimate D2E/DX2                !
 ! D78   D(9,18,20,25)          62.2576         estimate D2E/DX2                !
 ! D79   D(9,18,20,26)         -58.3268         estimate D2E/DX2                !
 ! D80   D(17,19,22,60)         27.1697         estimate D2E/DX2                !
 ! D81   D(21,19,22,60)        -89.2809         estimate D2E/DX2                !
 ! D82   D(23,19,22,60)        147.6386         estimate D2E/DX2                !
 ! D83   D(19,22,60,57)        -22.8363         estimate D2E/DX2                !
 ! D84   D(29,30,41,48)        -66.8549         estimate D2E/DX2                !
 ! D85   D(29,30,41,49)        173.3667         estimate D2E/DX2                !
 ! D86   D(29,30,41,50)         53.5793         estimate D2E/DX2                !
 ! D87   D(33,30,41,48)         43.1651         estimate D2E/DX2                !
 ! D88   D(33,30,41,49)        -76.6134         estimate D2E/DX2                !
 ! D89   D(33,30,41,50)        163.5993         estimate D2E/DX2                !
 ! D90   D(34,30,41,48)        169.0082         estimate D2E/DX2                !
 ! D91   D(34,30,41,49)         49.2298         estimate D2E/DX2                !
 ! D92   D(34,30,41,50)        -70.5576         estimate D2E/DX2                !
 ! D93   D(68,30,41,48)        -13.1908         estimate D2E/DX2                !
 ! D94   D(68,30,41,49)       -132.9692         estimate D2E/DX2                !
 ! D95   D(68,30,41,50)        107.2435         estimate D2E/DX2                !
 ! D96   D(34,30,68,15)        112.3433         estimate D2E/DX2                !
 ! D97   D(34,30,68,16)       -175.1056         estimate D2E/DX2                !
 ! D98   D(34,30,68,27)         22.6679         estimate D2E/DX2                !
 ! D99   D(34,30,68,28)        -90.9905         estimate D2E/DX2                !
 ! D100  D(34,30,68,31)          6.9808         estimate D2E/DX2                !
 ! D101  D(34,30,68,32)       -113.3008         estimate D2E/DX2                !
 ! D102  D(34,30,68,35)         -7.2747         estimate D2E/DX2                !
 ! D103  D(34,30,68,37)       -161.9586         estimate D2E/DX2                !
 ! D104  D(41,30,68,15)        -64.7908         estimate D2E/DX2                !
 ! D105  D(41,30,68,16)          7.7604         estimate D2E/DX2                !
 ! D106  D(41,30,68,27)       -154.4661         estimate D2E/DX2                !
 ! D107  D(41,30,68,28)         91.8755         estimate D2E/DX2                !
 ! D108  D(41,30,68,31)       -170.1533         estimate D2E/DX2                !
 ! D109  D(41,30,68,32)         69.5651         estimate D2E/DX2                !
 ! D110  D(41,30,68,35)        175.5913         estimate D2E/DX2                !
 ! D111  D(41,30,68,37)         20.9073         estimate D2E/DX2                !
 ! D112  D(27,31,40,45)         64.5215         estimate D2E/DX2                !
 ! D113  D(27,31,40,46)        -55.7069         estimate D2E/DX2                !
 ! D114  D(27,31,40,47)       -175.4433         estimate D2E/DX2                !
 ! D115  D(35,31,40,45)        -44.6512         estimate D2E/DX2                !
 ! D116  D(35,31,40,46)       -164.8795         estimate D2E/DX2                !
 ! D117  D(35,31,40,47)         75.3841         estimate D2E/DX2                !
 ! D118  D(36,31,40,45)       -170.5613         estimate D2E/DX2                !
 ! D119  D(36,31,40,46)         69.2103         estimate D2E/DX2                !
 ! D120  D(36,31,40,47)        -50.5261         estimate D2E/DX2                !
 ! D121  D(68,31,40,45)         10.8817         estimate D2E/DX2                !
 ! D122  D(68,31,40,46)       -109.3466         estimate D2E/DX2                !
 ! D123  D(68,31,40,47)        130.917          estimate D2E/DX2                !
 ! D124  D(36,31,68,15)        -41.951          estimate D2E/DX2                !
 ! D125  D(36,31,68,28)        179.2468         estimate D2E/DX2                !
 ! D126  D(36,31,68,29)         33.9175         estimate D2E/DX2                !
 ! D127  D(36,31,68,30)         65.0132         estimate D2E/DX2                !
 ! D128  D(36,31,68,32)       -151.0366         estimate D2E/DX2                !
 ! D129  D(36,31,68,33)         95.8635         estimate D2E/DX2                !
 ! D130  D(36,31,68,37)       -119.4981         estimate D2E/DX2                !
 ! D131  D(40,31,68,15)        135.9483         estimate D2E/DX2                !
 ! D132  D(40,31,68,28)         -2.854          estimate D2E/DX2                !
 ! D133  D(40,31,68,29)       -148.1833         estimate D2E/DX2                !
 ! D134  D(40,31,68,30)       -117.0876         estimate D2E/DX2                !
 ! D135  D(40,31,68,32)         26.8626         estimate D2E/DX2                !
 ! D136  D(40,31,68,33)        -86.2372         estimate D2E/DX2                !
 ! D137  D(40,31,68,37)         58.4012         estimate D2E/DX2                !
 ! D138  D(28,32,39,42)       -168.7898         estimate D2E/DX2                !
 ! D139  D(28,32,39,43)         71.7438         estimate D2E/DX2                !
 ! D140  D(28,32,39,44)        -49.1761         estimate D2E/DX2                !
 ! D141  D(37,32,39,42)         80.6354         estimate D2E/DX2                !
 ! D142  D(37,32,39,43)        -38.8309         estimate D2E/DX2                !
 ! D143  D(37,32,39,44)       -159.7508         estimate D2E/DX2                !
 ! D144  D(38,32,39,42)        -44.694          estimate D2E/DX2                !
 ! D145  D(38,32,39,43)       -164.1603         estimate D2E/DX2                !
 ! D146  D(38,32,39,44)         74.9198         estimate D2E/DX2                !
 ! D147  D(68,32,39,42)        137.8524         estimate D2E/DX2                !
 ! D148  D(68,32,39,43)         18.386          estimate D2E/DX2                !
 ! D149  D(68,32,39,44)       -102.5339         estimate D2E/DX2                !
 ! D150  D(38,32,68,15)         86.2888         estimate D2E/DX2                !
 ! D151  D(38,32,68,16)         16.5242         estimate D2E/DX2                !
 ! D152  D(38,32,68,27)        166.6388         estimate D2E/DX2                !
 ! D153  D(38,32,68,29)         -1.5255         estimate D2E/DX2                !
 ! D154  D(38,32,68,30)        -47.8354         estimate D2E/DX2                !
 ! D155  D(38,32,68,31)       -166.7454         estimate D2E/DX2                !
 ! D156  D(38,32,68,33)        -56.3212         estimate D2E/DX2                !
 ! D157  D(38,32,68,35)       -136.8338         estimate D2E/DX2                !
 ! D158  D(39,32,68,15)        -97.1531         estimate D2E/DX2                !
 ! D159  D(39,32,68,16)       -166.9177         estimate D2E/DX2                !
 ! D160  D(39,32,68,27)        -16.8031         estimate D2E/DX2                !
 ! D161  D(39,32,68,29)        175.0326         estimate D2E/DX2                !
 ! D162  D(39,32,68,30)        128.7228         estimate D2E/DX2                !
 ! D163  D(39,32,68,31)          9.8128         estimate D2E/DX2                !
 ! D164  D(39,32,68,33)        120.2369         estimate D2E/DX2                !
 ! D165  D(39,32,68,35)         39.7243         estimate D2E/DX2                !
 ! D166  D(1,51,52,54)         -80.2312         estimate D2E/DX2                !
 ! D167  D(7,51,52,54)          84.5834         estimate D2E/DX2                !
 ! D168  D(69,51,52,54)        147.6557         estimate D2E/DX2                !
 ! D169  D(51,52,54,53)         -9.2932         estimate D2E/DX2                !
 ! D170  D(51,52,54,62)        169.2958         estimate D2E/DX2                !
 ! D171  D(55,53,54,52)         97.4784         estimate D2E/DX2                !
 ! D172  D(64,53,54,52)       -109.8104         estimate D2E/DX2                !
 ! D173  D(54,53,64,65)         21.1794         estimate D2E/DX2                !
 ! D174  D(54,53,64,66)       -158.5288         estimate D2E/DX2                !
 ! D175  D(55,53,64,65)        175.5689         estimate D2E/DX2                !
 ! D176  D(55,53,64,66)         -4.1394         estimate D2E/DX2                !
 ! D177  D(59,56,58,57)       -179.8218         estimate D2E/DX2                !
 ! D178  D(59,56,58,61)         -1.6132         estimate D2E/DX2                !
 ! D179  D(66,56,58,57)          0.9213         estimate D2E/DX2                !
 ! D180  D(66,56,58,61)        179.1299         estimate D2E/DX2                !
 ! D181  D(58,56,66,64)         -0.5462         estimate D2E/DX2                !
 ! D182  D(58,56,66,67)        177.4068         estimate D2E/DX2                !
 ! D183  D(59,56,66,64)       -179.8306         estimate D2E/DX2                !
 ! D184  D(59,56,66,67)         -1.8776         estimate D2E/DX2                !
 ! D185  D(60,57,58,56)        178.814          estimate D2E/DX2                !
 ! D186  D(60,57,58,61)          0.5706         estimate D2E/DX2                !
 ! D187  D(65,57,58,56)         -0.2049         estimate D2E/DX2                !
 ! D188  D(65,57,58,61)       -178.4483         estimate D2E/DX2                !
 ! D189  D(58,57,60,22)       -146.1505         estimate D2E/DX2                !
 ! D190  D(65,57,60,22)         32.9508         estimate D2E/DX2                !
 ! D191  D(58,57,65,64)         -0.9284         estimate D2E/DX2                !
 ! D192  D(60,57,65,64)        179.9933         estimate D2E/DX2                !
 ! D193  D(53,64,65,57)       -178.3638         estimate D2E/DX2                !
 ! D194  D(66,64,65,57)          1.3468         estimate D2E/DX2                !
 ! D195  D(53,64,66,56)        179.0659         estimate D2E/DX2                !
 ! D196  D(53,64,66,67)          0.9903         estimate D2E/DX2                !
 ! D197  D(65,64,66,56)         -0.6237         estimate D2E/DX2                !
 ! D198  D(65,64,66,67)       -178.6993         estimate D2E/DX2                !
 --------------------------------------------------------------------------------
 Trust Radius=3.00D-01 FncErr=1.00D-07 GrdErr=1.00D-06 EigMax=2.50D+02 EigMin=1.00D-04
 Number of steps in this run=    414 maximum allowed number of steps=    414.
 GradGradGradGradGradGradGradGradGradGradGradGradGradGradGradGradGradGrad

 Leave Link  103 at Sat Apr 26 20:07:59 2025, MaxMem= 82678120448 cpu:               1.7 elap:               0.1
 (Enter /sysapps/ubuntu-applications/gaussian-new/avx/g16/l202.exe)
 Stoichiometry    C22H16F9LuN4O14S3
 Framework group  C1[X(C22H16F9LuN4O14S3)]
 Deg. of freedom   201
 Full point group                 C1      NOp   1
 Largest Abelian subgroup         C1      NOp   1
 Largest concise Abelian subgroup C1      NOp   1
                         Standard orientation:                         
 ---------------------------------------------------------------------
 Center     Atomic      Atomic             Coordinates (Angstroms)
 Number     Number       Type             X           Y           Z
 ---------------------------------------------------------------------
      1          6           0       -4.781155    0.845457    0.924065
      2          6           0       -6.114111    0.615275    0.560646
      3          6           0       -7.129369    0.682893    1.516078
      4          6           0       -6.819035    1.000797    2.838268
      5          6           0       -5.496620    1.289240    3.193239
      6          6           0       -4.483078    1.227180    2.239327
      7          6           0       -2.313343    0.442944   -0.093705
      8          6           0       -1.578958    0.188053   -1.395794
      9          6           0       -1.619953   -0.124097    1.127052
     10          1           0       -6.355913    0.374372   -0.477791
     11          1           0       -8.163443    0.488253    1.223972
     12          1           0       -7.608820    1.047126    3.591495
     13          1           0       -5.256005    1.574902    4.219602
     14          1           0       -3.461315    1.492100    2.519791
     15          8           0       -0.411881   -0.014690    1.319818
     16          8           0       -0.351970    0.091186   -1.451597
     17          8           0       -2.340371    0.176182   -2.435220
     18          8           0       -2.410375   -0.743257    1.941363
     19          6           0       -1.739949   -0.047893   -3.719989
     20          6           0       -1.886087   -1.259730    3.174385
     21          1           0       -2.567853   -0.108331   -4.432128
     22          1           0       -1.173331   -0.988983   -3.697801
     23          1           0       -1.069412    0.785504   -3.965771
     24          1           0       -2.727739   -1.757184    3.667746
     25          1           0       -1.509503   -0.430815    3.788443
     26          1           0       -1.071954   -1.966818    2.964725
     27          8           0        2.521907   -0.183747    1.865732
     28          8           0        2.722366   -0.593771   -1.460987
     29          8           0        0.269353    2.519186    0.375038
     30         16           0        0.900707    3.289320   -0.750927
     31         16           0        3.496961    0.954282    1.955002
     32         16           0        2.159691   -1.972971   -1.272025
     33          8           0        1.624722    2.260322   -1.557592
     34          8           0        1.589002    4.508292   -0.420571
     35          8           0        3.158374    1.820544    0.783607
     36          8           0        3.676417    1.579410    3.236649
     37          8           0        1.178497   -1.844534   -0.156932
     38          8           0        1.748594   -2.676524   -2.462138
     39          6           0        3.542539   -2.967834   -0.564250
     40          6           0        5.120761    0.198304    1.520998
     41          6           0       -0.529106    3.815319   -1.789838
     42          9           0        3.189172   -4.239832   -0.601703
     43          9           0        3.763842   -2.608589    0.684488
     44          9           0        4.627326   -2.780483   -1.286412
     45          9           0        5.096946   -0.221088    0.269055
     46          9           0        5.346643   -0.818310    2.329301
     47          9           0        6.063729    1.106301    1.667766
     48          9           0       -1.102738    2.761196   -2.348934
     49          9           0       -0.091625    4.623849   -2.734132
     50          9           0       -1.399893    4.443289   -1.028826
     51          6           0       -3.750969    0.791985   -0.155195
     52          1           0       -4.173613    0.738799   -1.162712
     53          6           0       -4.116547   -1.981770   -0.267609
     54          6           0       -4.785551   -1.639687   -1.463284
     55          6           0       -4.803998   -2.132300    0.959090
     56          6           0       -1.240558   -4.202171    0.410171
     57          6           0       -1.224913   -3.348835   -1.799391
     58          6           0       -0.621209   -4.156760   -0.829121
     59          1           0       -0.850257   -4.798412    1.235805
     60          1           0       -0.795010   -3.238518   -2.797573
     61          1           0        0.303697   -4.691882   -1.044290
     62          7           0       -5.351558   -1.313702   -2.429975
     63          7           0       -5.297651   -2.293156    2.004245
     64          7           0       -2.919939   -2.727679   -0.402055
     65          7           0       -2.329703   -2.651523   -1.591128
     66          6           0       -2.407429   -3.476197    0.606483
     67          1           0       -2.969865   -3.497035    1.539695
     68         71           0        1.366064    0.522500    0.000536
     69          8           0       -2.716483    1.788120   -0.039278
 ---------------------------------------------------------------------
 Rotational constants (GHZ):           0.0724890           0.0405732           0.0346039
 Leave Link  202 at Sat Apr 26 20:07:59 2025, MaxMem= 82678120448 cpu:               2.3 elap:               0.2
 (Enter /sysapps/ubuntu-applications/gaussian-new/avx/g16/l301.exe)
 General basis read from cards:  (5D, 7F)
 Centers:      10     11     12     13     14     21     22     23     24     25
 Centers:      26     52     59     60     61     67
 S 3 1.00
     Exponent=  1.3010701000D+01 Coefficients=  1.9682158000D-02
     Exponent=  1.9622572000D+00 Coefficients=  1.3796524000D-01
     Exponent=  4.4453796000D-01 Coefficients=  4.7831935000D-01
 S 1 1.00
     Exponent=  1.2194962000D-01 Coefficients=  1.0000000000D+00
 P 1 1.00
     Exponent=  8.0000000000D-01 Coefficients=  1.0000000000D+00
 ****
 Centers:       1      2      3      4      5      6      7      8      9     19
 Centers:      20     39     40     41     51     53     54     55     56     57
 Centers:      58     66
 S 5 1.00
     Exponent=  1.2384016938D+03 Coefficients=  5.4568832082D-03
     Exponent=  1.8629004992D+02 Coefficients=  4.0638409211D-02
     Exponent=  4.2251176346D+01 Coefficients=  1.8025593888D-01
     Exponent=  1.1676557932D+01 Coefficients=  4.6315121755D-01
     Exponent=  3.5930506482D+00 Coefficients=  4.4087173314D-01
 S 1 1.00
     Exponent=  4.0245147363D-01 Coefficients=  1.0000000000D+00
 S 1 1.00
     Exponent=  1.3090182668D-01 Coefficients=  1.0000000000D+00
 P 3 1.00
     Exponent=  9.4680970621D+00 Coefficients=  3.8387871728D-02
     Exponent=  2.0103545142D+00 Coefficients=  2.1117025112D-01
     Exponent=  5.4771004707D-01 Coefficients=  5.1328172114D-01
 P 1 1.00
     Exponent=  1.5268613795D-01 Coefficients=  1.0000000000D+00
 D 1 1.00
     Exponent=  8.0000000000D-01 Coefficients=  1.0000000000D+00
 ****
 Centers:      62     63     64     65
 S 5 1.00
     Exponent=  1.7128415853D+03 Coefficients= -5.3934125305D-03
     Exponent=  2.5764812677D+02 Coefficients= -4.0221581118D-02
     Exponent=  5.8458245853D+01 Coefficients= -1.7931144990D-01
     Exponent=  1.6198367905D+01 Coefficients= -4.6376317823D-01
     Exponent=  5.0052600809D+00 Coefficients= -4.4171422662D-01
 S 1 1.00
     Exponent=  5.8731856571D-01 Coefficients=  1.0000000000D+00
 S 1 1.00
     Exponent=  1.8764592253D-01 Coefficients=  1.0000000000D+00
 P 3 1.00
     Exponent=  1.3571470233D+01 Coefficients= -4.0072398852D-02
     Exponent=  2.9257372874D+00 Coefficients= -2.1807045028D-01
     Exponent=  7.9927750754D-01 Coefficients= -5.1294466049D-01
 P 1 1.00
     Exponent=  2.1954348034D-01 Coefficients=  1.0000000000D+00
 D 1 1.00
     Exponent=  1.0000000000D+00 Coefficients=  1.0000000000D+00
 ****
 Centers:      15     16     17     18     27     28     29     33     34     35
 Centers:      36     37     38     69
 S 5 1.00
     Exponent=  2.2661767785D+03 Coefficients= -5.3431809926D-03
     Exponent=  3.4087010191D+02 Coefficients= -3.9890039230D-02
     Exponent=  7.7363135167D+01 Coefficients= -1.7853911985D-01
     Exponent=  2.1479644940D+01 Coefficients= -4.6427684959D-01
     Exponent=  6.6589433124D+00 Coefficients= -4.4309745172D-01
 S 1 1.00
     Exponent=  8.0975975668D-01 Coefficients=  1.0000000000D+00
 S 1 1.00
     Exponent=  2.5530772234D-01 Coefficients=  1.0000000000D+00
 P 3 1.00
     Exponent=  1.7721504317D+01 Coefficients=  4.3394573193D-02
     Exponent=  3.8635505440D+00 Coefficients=  2.3094120765D-01
     Exponent=  1.0480920883D+00 Coefficients=  5.1375311064D-01
 P 1 1.00
     Exponent=  2.7641544411D-01 Coefficients=  1.0000000000D+00
 D 1 1.00
     Exponent=  1.2000000000D+00 Coefficients=  1.0000000000D+00
 ****
 Centers:      42     43     44     45     46     47     48     49     50
 S 5 1.00
     Exponent=  2.8948325990D+03 Coefficients= -5.3408255515D-03
     Exponent=  4.3541939120D+02 Coefficients= -3.9904258866D-02
     Exponent=  9.8843328866D+01 Coefficients= -1.7912768038D-01
     Exponent=  2.7485198001D+01 Coefficients= -4.6758090825D-01
     Exponent=  8.5405498171D+00 Coefficients= -4.4653131020D-01
 S 1 1.00
     Exponent=  1.0654578038D+00 Coefficients=  1.0000000000D+00
 S 1 1.00
     Exponent=  3.3247346748D-01 Coefficients=  1.0000000000D+00
 P 3 1.00
     Exponent=  2.2696633924D+01 Coefficients= -4.5212874436D-02
     Exponent=  4.9872339257D+00 Coefficients= -2.3754317067D-01
     Exponent=  1.3491613954D+00 Coefficients= -5.1287353587D-01
 P 1 1.00
     Exponent=  3.4829881977D-01 Coefficients=  1.0000000000D+00
 D 1 1.00
     Exponent=  1.4000000000D+00 Coefficients=  1.0000000000D+00
 ****
 Centers:      30     31     32
 S 5 1.00
     Exponent=  9.1849303010D+03 Coefficients= -2.2294387756D-03
     Exponent=  1.3815105503D+03 Coefficients= -1.6683029937D-02
     Exponent=  3.1387147580D+02 Coefficients= -7.5262436116D-02
     Exponent=  8.8053870623D+01 Coefficients= -1.9376827038D-01
     Exponent=  2.7039914905D+01 Coefficients= -1.7718020803D-01
 S 3 1.00
     Exponent=  4.5648731303D+01 Coefficients= -1.0736062573D-01
     Exponent=  4.9664522326D+00 Coefficients=  6.5066293018D-01
     Exponent=  2.0116242047D+00 Coefficients=  5.9712155354D-01
 S 1 1.00
     Exponent=  3.5661077013D-01 Coefficients=  1.0000000000D+00
 S 1 1.00
     Exponent=  1.3507221477D-01 Coefficients=  1.0000000000D+00
 P 5 1.00
     Exponent=  2.6198233439D+02 Coefficients= -9.2729929822D-03
     Exponent=  6.1306894736D+01 Coefficients= -6.6547669241D-02
     Exponent=  1.9103729887D+01 Coefficients= -2.4828595903D-01
     Exponent=  6.6567720378D+00 Coefficients= -4.8703847402D-01
     Exponent=  2.3959635161D+00 Coefficients= -3.9337850312D-01
 P 1 1.00
     Exponent=  6.1776161679D-01 Coefficients=  1.0000000000D+00
 P 1 1.00
     Exponent=  1.6993376871D-01 Coefficients=  1.0000000000D+00
 D 1 1.00
     Exponent=  5.5000000000D-01 Coefficients=  1.0000000000D+00
 ****
 Centers:      68
 S 5 1.00
     Exponent=  9.5169767000D+04 Coefficients=  2.2000000000D-05
     Exponent=  1.5488403000D+04 Coefficients=  1.4500000000D-04
     Exponent=  3.7762335000D+03 Coefficients=  6.5100000000D-04
     Exponent=  1.0790501000D+03 Coefficients=  2.0380000000D-03
     Exponent=  2.6895380000D+02 Coefficients=  5.1270000000D-03
 S 1 1.00
     Exponent=  6.3467900000D+01 Coefficients=  1.0000000000D+00
 S 1 1.00
     Exponent=  4.5133200000D+01 Coefficients=  1.0000000000D+00
 S 1 1.00
     Exponent=  2.1456800000D+01 Coefficients=  1.0000000000D+00
 S 1 1.00
     Exponent=  5.3483000000D+00 Coefficients=  1.0000000000D+00
 S 1 1.00
     Exponent=  2.6778000000D+00 Coefficients=  1.0000000000D+00
 S 1 1.00
     Exponent=  1.0287000000D+00 Coefficients=  1.0000000000D+00
 S 1 1.00
     Exponent=  4.4080000000D-01 Coefficients=  1.0000000000D+00
 S 1 1.00
     Exponent=  7.9100000000D-02 Coefficients=  1.0000000000D+00
 S 1 1.00
     Exponent=  3.1300000000D-02 Coefficients=  1.0000000000D+00
 P 3 1.00
     Exponent=  1.2333733920D+01 Coefficients= -1.5313031066D-01
     Exponent=  1.1080331415D+01 Coefficients= -2.0300664852D-01
     Exponent=  2.0341747228D+00 Coefficients= -1.9458361263D-01
 P 6 1.00
     Exponent=  1.5005317313D+03 Coefficients= -1.0192569555D-03
     Exponent=  3.8239748937D+02 Coefficients= -5.9476212135D-03
     Exponent=  1.3299969628D+02 Coefficients= -1.6265160929D-02
     Exponent=  4.6110032419D+01 Coefficients= -3.5623845839D-02
     Exponent=  1.5583529011D+01 Coefficients=  2.3709171074D-01
     Exponent=  5.7856677022D+00 Coefficients= -3.0670977844D-01
 P 1 1.00
     Exponent=  3.7823361008D+00 Coefficients=  1.0000000000D+00
 P 1 1.00
     Exponent=  1.3682592248D+00 Coefficients=  1.0000000000D+00
 P 1 1.00
     Exponent=  5.7288205601D-01 Coefficients=  1.0000000000D+00
 P 1 1.00
     Exponent=  2.2793165135D-01 Coefficients=  1.0000000000D+00
 P 1 1.00
     Exponent=  8.1403917986D-02 Coefficients=  1.0000000000D+00
 P 1 1.00
     Exponent=  2.9091071778D-02 Coefficients=  1.0000000000D+00
 D 6 1.00
     Exponent=  4.8452750000D+02 Coefficients=  2.2860000000D-03
     Exponent=  1.4666550000D+02 Coefficients=  1.8629000000D-02
     Exponent=  5.6377900000D+01 Coefficients=  7.4088000000D-02
     Exponent=  2.3671100000D+01 Coefficients=  1.6155400000D-01
     Exponent=  9.4401000000D+00 Coefficients=  3.0809100000D-01
     Exponent=  4.3712000000D+00 Coefficients=  4.4833400000D-01
 D 1 1.00
     Exponent=  1.9580000000D+00 Coefficients=  1.0000000000D+00
 D 1 1.00
     Exponent=  7.2720000000D-01 Coefficients=  1.0000000000D+00
 D 1 1.00
     Exponent=  2.4600000000D-01 Coefficients=  1.0000000000D+00
 D 1 1.00
     Exponent=  7.4400000000D-02 Coefficients=  1.0000000000D+00
 F 5 1.00
     Exponent=  1.7515590000D+02 Coefficients=  4.1020000000D-03
     Exponent=  6.2890900000D+01 Coefficients=  3.9086000000D-02
     Exponent=  2.8362400000D+01 Coefficients=  1.4704400000D-01
     Exponent=  1.3247800000D+01 Coefficients=  2.7109200000D-01
     Exponent=  6.1440000000D+00 Coefficients=  3.4566500000D-01
 F 1 1.00
     Exponent=  2.7623000000D+00 Coefficients=  1.0000000000D+00
 F 1 1.00
     Exponent=  1.1574000000D+00 Coefficients=  1.0000000000D+00
 F 1 1.00
     Exponent=  4.2440000000D-01 Coefficients=  1.0000000000D+00
 G 1 1.00
     Exponent=  7.0090000000D-01 Coefficients=  1.0000000000D+00
 ****
 ======================================================================================================
                                       Pseudopotential Parameters
 ======================================================================================================
  Center     Atomic      Valence      Angular      Power
  Number     Number     Electrons     Momentum     of R      Exponent        Coefficient   SO-Coeffient
 ======================================================================================================
    1          6
                                   No pseudopotential on this center.
    2          6
                                   No pseudopotential on this center.
    3          6
                                   No pseudopotential on this center.
    4          6
                                   No pseudopotential on this center.
    5          6
                                   No pseudopotential on this center.
    6          6
                                   No pseudopotential on this center.
    7          6
                                   No pseudopotential on this center.
    8          6
                                   No pseudopotential on this center.
    9          6
                                   No pseudopotential on this center.
   10          1
                                   No pseudopotential on this center.
   11          1
                                   No pseudopotential on this center.
   12          1
                                   No pseudopotential on this center.
   13          1
                                   No pseudopotential on this center.
   14          1
                                   No pseudopotential on this center.
   15          8
                                   No pseudopotential on this center.
   16          8
                                   No pseudopotential on this center.
   17          8
                                   No pseudopotential on this center.
   18          8
                                   No pseudopotential on this center.
   19          6
                                   No pseudopotential on this center.
   20          6
                                   No pseudopotential on this center.
   21          1
                                   No pseudopotential on this center.
   22          1
                                   No pseudopotential on this center.
   23          1
                                   No pseudopotential on this center.
   24          1
                                   No pseudopotential on this center.
   25          1
                                   No pseudopotential on this center.
   26          1
                                   No pseudopotential on this center.
   27          8
                                   No pseudopotential on this center.
   28          8
                                   No pseudopotential on this center.
   29          8
                                   No pseudopotential on this center.
   30         16
                                   No pseudopotential on this center.
   31         16
                                   No pseudopotential on this center.
   32         16
                                   No pseudopotential on this center.
   33          8
                                   No pseudopotential on this center.
   34          8
                                   No pseudopotential on this center.
   35          8
                                   No pseudopotential on this center.
   36          8
                                   No pseudopotential on this center.
   37          8
                                   No pseudopotential on this center.
   38          8
                                   No pseudopotential on this center.
   39          6
                                   No pseudopotential on this center.
   40          6
                                   No pseudopotential on this center.
   41          6
                                   No pseudopotential on this center.
   42          9
                                   No pseudopotential on this center.
   43          9
                                   No pseudopotential on this center.
   44          9
                                   No pseudopotential on this center.
   45          9
                                   No pseudopotential on this center.
   46          9
                                   No pseudopotential on this center.
   47          9
                                   No pseudopotential on this center.
   48          9
                                   No pseudopotential on this center.
   49          9
                                   No pseudopotential on this center.
   50          9
                                   No pseudopotential on this center.
   51          6
                                   No pseudopotential on this center.
   52          1
                                   No pseudopotential on this center.
   53          6
                                   No pseudopotential on this center.
   54          6
                                   No pseudopotential on this center.
   55          6
                                   No pseudopotential on this center.
   56          6
                                   No pseudopotential on this center.
   57          6
                                   No pseudopotential on this center.
   58          6
                                   No pseudopotential on this center.
   59          1
                                   No pseudopotential on this center.
   60          1
                                   No pseudopotential on this center.
   61          1
                                   No pseudopotential on this center.
   62          7
                                   No pseudopotential on this center.
   63          7
                                   No pseudopotential on this center.
   64          7
                                   No pseudopotential on this center.
   65          7
                                   No pseudopotential on this center.
   66          6
                                   No pseudopotential on this center.
   67          1
                                   No pseudopotential on this center.
   68         71           43
                                      H and up 
                                                     2        1.0000000        0.00000000    0.00000000
                                      S - H
                                                     2       35.1620970      989.99558400    0.00000000
                                      P - H
                                                     2       19.4644020      278.86565200    0.00000000
                                      D - H
                                                     2       10.0068650       71.00917800    0.00000000
                                      F - H
                                                     2       23.5179320      -47.40589000    0.00000000
                                      G - H
                                                     2       29.4122380      -35.55714600    0.00000000
   69          8
                                   No pseudopotential on this center.
 ======================================================================================================
 Ernie: Thresh=  0.10000D-02 Tol=  0.10000D-05 Strict=F.
 There are   991 symmetry adapted cartesian basis functions of A   symmetry.
 There are   916 symmetry adapted basis functions of A   symmetry.
   916 basis functions,  1662 primitive gaussians,   991 cartesian basis functions
   230 alpha electrons      230 beta electrons
       nuclear repulsion energy     11957.8435219072 Hartrees.
 IExCor= 7252 DFT=T Ex+Corr=MN15 ExCW=0 ScaHFX=  0.440000
 ScaDFX=  1.000000  1.000000  1.000000  1.000000 ScalE2=  1.000000  1.000000
 IRadAn=      5 IRanWt=     -1 IRanGd=            0 ICorTp=0 IEmpDi=  4
 NAtoms=   69 NActive=   69 NUniq=   69 SFac= 1.00D+00 NAtFMM=   60 NAOKFM=T Big=T
 Integral buffers will be    131072 words long.
 Raffenetti 2 integral format.
 Two-electron integral symmetry is turned on.
 ------------------------------------------------------------------------------
 Polarizable Continuum Model (PCM)
 =================================
 Model                : PCM.
 Atomic radii         : SMD-Coulomb.
 Polarization charges : Total charges.
 Charge compensation  : None.
 Solution method      : On-the-fly selection.
 Cavity type          : VdW (van der Waals Surface) (Alpha=1.000).
 Cavity algorithm     : GePol (No added spheres)
                        Default sphere list used, NSphG=   69.
                        Lebedev-Laikov grids with approx.  5.0 points / Ang**2.
                        Smoothing algorithm: York/Karplus (Gamma=1.0000).
                        Polarization charges: spherical gaussians, with
                                              point-specific exponents (IZeta= 3).
                        Self-potential: point-specific (ISelfS= 7).
                        Self-field    : sphere-specific E.n sum rule (ISelfD= 2).
 1st derivatives      : Analytical E(r).r(x)/FMM algorithm (CHGder, D1EAlg=3).
                        Cavity 1st derivative terms included.
 Solvent              : DiChloroEthane, Eps=  10.125000 Eps(inf)=   2.087447
 ------------------------------------------------------------------------------
 GePol: Number of generator spheres                  =      69
 GePol: Total number of spheres                      =      69
 GePol: Number of exposed spheres                    =      69 (100.00%)
 GePol: Number of points                             =    4655
 GePol: Average weight of points                     =       0.13
 GePol: Minimum weight of points                     =   0.55D-11
 GePol: Maximum weight of points                     =    0.21501
 GePol: Number of points with low weight             =     261
 GePol: Fraction of low-weight points (<1% of avg)   =       5.61%
 GePol: Cavity surface area                          =    604.174 Ang**2
 GePol: Cavity volume                                =    767.792 Ang**3
 ------------------------------------------------------------------------------
 Atomic radii for non-electrostatic terms: SMD-CDS.
 ------------------------------------------------------------------------------
 PCM non-electrostatic energy =         0.0051055485 Hartrees.
 Nuclear repulsion after PCM non-electrostatic terms =    11957.8486274557 Hartrees.
[...]
              Bcc     0.0000     0.000     0.000     0.000  0.0000  0.0000  1.0000
 
              Baa     0.0000     0.000     0.000     0.000  1.0000  0.0000  0.0000
     7 C(13)  Bbb     0.0000     0.000     0.000     0.000 -0.0000  1.0000  0.0000
              Bcc     0.0000     0.000     0.000     0.000  0.0000  0.0000  1.0000
 
              Baa     0.0000     0.000     0.000     0.000  1.0000  0.0000  0.0000
     8 C(13)  Bbb     0.0000     0.000     0.000     0.000 -0.0000  1.0000  0.0000
              Bcc     0.0000     0.000     0.000     0.000  0.0000  0.0000  1.0000
 
              Baa     0.0000     0.000     0.000     0.000  1.0000  0.0000  0.0000
     9 C(13)  Bbb     0.0000     0.000     0.000     0.000 -0.0000  1.0000  0.0000
              Bcc     0.0000     0.000     0.000     0.000  0.0000  0.0000  1.0000
 
              Baa     0.0000     0.000     0.000     0.000  1.0000  0.0000  0.0000
    10 H(1)   Bbb     0.0000     0.000     0.000     0.000 -0.0000  1.0000  0.0000
              Bcc     0.0000     0.000     0.000     0.000  0.0000  0.0000  1.0000
 
              Baa     0.0000     0.000     0.000     0.000  1.0000  0.0000  0.0000
    11 H(1)   Bbb     0.0000     0.000     0.000     0.000 -0.0000  1.0000  0.0000
              Bcc     0.0000     0.000     0.000     0.000  0.0000  0.0000  1.0000
 
              Baa     0.0000     0.000     0.000     0.000  1.0000  0.0000  0.0000
    12 H(1)   Bbb     0.0000     0.000     0.000     0.000 -0.0000  1.0000  0.0000
              Bcc     0.0000     0.000     0.000     0.000  0.0000  0.0000  1.0000
 
              Baa     0.0000     0.000     0.000     0.000  1.0000  0.0000  0.0000
    13 H(1)   Bbb     0.0000     0.000     0.000     0.000 -0.0000  1.0000  0.0000
              Bcc     0.0000     0.000     0.000     0.000  0.0000  0.0000  1.0000
 
              Baa     0.0000     0.000     0.000     0.000  1.0000  0.0000  0.0000
    14 H(1)   Bbb     0.0000     0.000     0.000     0.000 -0.0000  1.0000  0.0000
              Bcc     0.0000     0.000     0.000     0.000  0.0000  0.0000  1.0000
 
              Baa     0.0000    -0.000    -0.000    -0.000  1.0000  0.0000  0.0000
    15 O(17)  Bbb     0.0000    -0.000    -0.000    -0.000 -0.0000  1.0000  0.0000
              Bcc     0.0000    -0.000    -0.000    -0.000  0.0000  0.0000  1.0000
 
              Baa     0.0000    -0.000    -0.000    -0.000  1.0000  0.0000  0.0000
    16 O(17)  Bbb     0.0000    -0.000    -0.000    -0.000 -0.0000  1.0000  0.0000
              Bcc     0.0000    -0.000    -0.000    -0.000  0.0000  0.0000  1.0000
 
              Baa     0.0000    -0.000    -0.000    -0.000  1.0000  0.0000  0.0000
    17 O(17)  Bbb     0.0000    -0.000    -0.000    -0.000 -0.0000  1.0000  0.0000
              Bcc     0.0000    -0.000    -0.000    -0.000  0.0000  0.0000  1.0000
 
              Baa     0.0000    -0.000    -0.000    -0.000  1.0000  0.0000  0.0000
    18 O(17)  Bbb     0.0000    -0.000    -0.000    -0.000 -0.0000  1.0000  0.0000
              Bcc     0.0000    -0.000    -0.000    -0.000  0.0000  0.0000  1.0000
 
              Baa     0.0000     0.000     0.000     0.000  1.0000  0.0000  0.0000
    19 C(13)  Bbb     0.0000     0.000     0.000     0.000 -0.0000  1.0000  0.0000
              Bcc     0.0000     0.000     0.000     0.000  0.0000  0.0000  1.0000
 
              Baa     0.0000     0.000     0.000     0.000  1.0000  0.0000  0.0000
    20 C(13)  Bbb     0.0000     0.000     0.000     0.000 -0.0000  1.0000  0.0000
              Bcc     0.0000     0.000     0.000     0.000  0.0000  0.0000  1.0000
 
              Baa     0.0000     0.000     0.000     0.000  1.0000  0.0000  0.0000
    21 H(1)   Bbb     0.0000     0.000     0.000     0.000 -0.0000  1.0000  0.0000
              Bcc     0.0000     0.000     0.000     0.000  0.0000  0.0000  1.0000
 
              Baa     0.0000     0.000     0.000     0.000  1.0000  0.0000  0.0000
    22 H(1)   Bbb     0.0000     0.000     0.000     0.000 -0.0000  1.0000  0.0000
              Bcc     0.0000     0.000     0.000     0.000  0.0000  0.0000  1.0000
 
              Baa     0.0000     0.000     0.000     0.000  1.0000  0.0000  0.0000
    23 H(1)   Bbb     0.0000     0.000     0.000     0.000 -0.0000  1.0000  0.0000
              Bcc     0.0000     0.000     0.000     0.000  0.0000  0.0000  1.0000
 
              Baa     0.0000     0.000     0.000     0.000  1.0000  0.0000  0.0000
    24 H(1)   Bbb     0.0000     0.000     0.000     0.000 -0.0000  1.0000  0.0000
              Bcc     0.0000     0.000     0.000     0.000  0.0000  0.0000  1.0000
 
              Baa     0.0000     0.000     0.000     0.000  1.0000  0.0000  0.0000
    25 H(1)   Bbb     0.0000     0.000     0.000     0.000 -0.0000  1.0000  0.0000
              Bcc     0.0000     0.000     0.000     0.000  0.0000  0.0000  1.0000
 
              Baa     0.0000     0.000     0.000     0.000  1.0000  0.0000  0.0000
    26 H(1)   Bbb     0.0000     0.000     0.000     0.000 -0.0000  1.0000  0.0000
              Bcc     0.0000     0.000     0.000     0.000  0.0000  0.0000  1.0000
 
              Baa     0.0000    -0.000    -0.000    -0.000  1.0000  0.0000  0.0000
    27 O(17)  Bbb     0.0000    -0.000    -0.000    -0.000 -0.0000  1.0000  0.0000
              Bcc     0.0000    -0.000    -0.000    -0.000  0.0000  0.0000  1.0000
 
              Baa     0.0000    -0.000    -0.000    -0.000  1.0000  0.0000  0.0000
    28 O(17)  Bbb     0.0000    -0.000    -0.000    -0.000 -0.0000  1.0000  0.0000
              Bcc     0.0000    -0.000    -0.000    -0.000  0.0000  0.0000  1.0000
 
              Baa     0.0000    -0.000    -0.000    -0.000  1.0000  0.0000  0.0000
    29 O(17)  Bbb     0.0000    -0.000    -0.000    -0.000 -0.0000  1.0000  0.0000
              Bcc     0.0000    -0.000    -0.000    -0.000  0.0000  0.0000  1.0000
 
              Baa     0.0000     0.000     0.000     0.000  1.0000  0.0000  0.0000
    30 S(33)  Bbb     0.0000     0.000     0.000     0.000 -0.0000  1.0000  0.0000
              Bcc     0.0000     0.000     0.000     0.000  0.0000  0.0000  1.0000
 
              Baa     0.0000     0.000     0.000     0.000  1.0000  0.0000  0.0000
    31 S(33)  Bbb     0.0000     0.000     0.000     0.000 -0.0000  1.0000  0.0000
              Bcc     0.0000     0.000     0.000     0.000  0.0000  0.0000  1.0000
 
              Baa     0.0000     0.000     0.000     0.000  1.0000  0.0000  0.0000
    32 S(33)  Bbb     0.0000     0.000     0.000     0.000 -0.0000  1.0000  0.0000
              Bcc     0.0000     0.000     0.000     0.000  0.0000  0.0000  1.0000
 
              Baa     0.0000    -0.000    -0.000    -0.000  1.0000  0.0000  0.0000
    33 O(17)  Bbb     0.0000    -0.000    -0.000    -0.000 -0.0000  1.0000  0.0000
              Bcc     0.0000    -0.000    -0.000    -0.000  0.0000  0.0000  1.0000
 
              Baa     0.0000    -0.000    -0.000    -0.000  1.0000  0.0000  0.0000
    34 O(17)  Bbb     0.0000    -0.000    -0.000    -0.000 -0.0000  1.0000  0.0000
              Bcc     0.0000    -0.000    -0.000    -0.000  0.0000  0.0000  1.0000
 
              Baa     0.0000    -0.000    -0.000    -0.000  1.0000  0.0000  0.0000
    35 O(17)  Bbb     0.0000    -0.000    -0.000    -0.000 -0.0000  1.0000  0.0000
              Bcc     0.0000    -0.000    -0.000    -0.000  0.0000  0.0000  1.0000
 
              Baa     0.0000    -0.000    -0.000    -0.000  1.0000  0.0000  0.0000
    36 O(17)  Bbb     0.0000    -0.000    -0.000    -0.000 -0.0000  1.0000  0.0000
              Bcc     0.0000    -0.000    -0.000    -0.000  0.0000  0.0000  1.0000
 
              Baa     0.0000    -0.000    -0.000    -0.000  1.0000  0.0000  0.0000
    37 O(17)  Bbb     0.0000    -0.000    -0.000    -0.000 -0.0000  1.0000  0.0000
              Bcc     0.0000    -0.000    -0.000    -0.000  0.0000  0.0000  1.0000
 
              Baa     0.0000    -0.000    -0.000    -0.000  1.0000  0.0000  0.0000
    38 O(17)  Bbb     0.0000    -0.000    -0.000    -0.000 -0.0000  1.0000  0.0000
              Bcc     0.0000    -0.000    -0.000    -0.000  0.0000  0.0000  1.0000
 
              Baa     0.0000     0.000     0.000     0.000  1.0000  0.0000  0.0000
    39 C(13)  Bbb     0.0000     0.000     0.000     0.000 -0.0000  1.0000  0.0000
              Bcc     0.0000     0.000     0.000     0.000  0.0000  0.0000  1.0000
 
              Baa     0.0000     0.000     0.000     0.000  1.0000  0.0000  0.0000
    40 C(13)  Bbb     0.0000     0.000     0.000     0.000 -0.0000  1.0000  0.0000
              Bcc     0.0000     0.000     0.000     0.000  0.0000  0.0000  1.0000
 
              Baa     0.0000     0.000     0.000     0.000  1.0000  0.0000  0.0000
    41 C(13)  Bbb     0.0000     0.000     0.000     0.000 -0.0000  1.0000  0.0000
              Bcc     0.0000     0.000     0.000     0.000  0.0000  0.0000  1.0000
 
              Baa     0.0000     0.000     0.000     0.000  1.0000  0.0000  0.0000
    42 F(19)  Bbb     0.0000     0.000     0.000     0.000 -0.0000  1.0000  0.0000
              Bcc     0.0000     0.000     0.000     0.000  0.0000  0.0000  1.0000
 
              Baa     0.0000     0.000     0.000     0.000  1.0000  0.0000  0.0000
    43 F(19)  Bbb     0.0000     0.000     0.000     0.000 -0.0000  1.0000  0.0000
              Bcc     0.0000     0.000     0.000     0.000  0.0000  0.0000  1.0000
 
              Baa     0.0000     0.000     0.000     0.000  1.0000  0.0000  0.0000
    44 F(19)  Bbb     0.0000     0.000     0.000     0.000 -0.0000  1.0000  0.0000
              Bcc     0.0000     0.000     0.000     0.000  0.0000  0.0000  1.0000
 
              Baa     0.0000     0.000     0.000     0.000  1.0000  0.0000  0.0000
    45 F(19)  Bbb     0.0000     0.000     0.000     0.000 -0.0000  1.0000  0.0000
              Bcc     0.0000     0.000     0.000     0.000  0.0000  0.0000  1.0000
 
              Baa     0.0000     0.000     0.000     0.000  1.0000  0.0000  0.0000
    46 F(19)  Bbb     0.0000     0.000     0.000     0.000 -0.0000  1.0000  0.0000
              Bcc     0.0000     0.000     0.000     0.000  0.0000  0.0000  1.0000
 
              Baa     0.0000     0.000     0.000     0.000  1.0000  0.0000  0.0000
    47 F(19)  Bbb     0.0000     0.000     0.000     0.000 -0.0000  1.0000  0.0000
              Bcc     0.0000     0.000     0.000     0.000  0.0000  0.0000  1.0000
 
              Baa     0.0000     0.000     0.000     0.000  1.0000  0.0000  0.0000
    48 F(19)  Bbb     0.0000     0.000     0.000     0.000 -0.0000  1.0000  0.0000
              Bcc     0.0000     0.000     0.000     0.000  0.0000  0.0000  1.0000
 
              Baa     0.0000     0.000     0.000     0.000  1.0000  0.0000  0.0000
    49 F(19)  Bbb     0.0000     0.000     0.000     0.000 -0.0000  1.0000  0.0000
              Bcc     0.0000     0.000     0.000     0.000  0.0000  0.0000  1.0000
 
              Baa     0.0000     0.000     0.000     0.000  1.0000  0.0000  0.0000
    50 F(19)  Bbb     0.0000     0.000     0.000     0.000 -0.0000  1.0000  0.0000
              Bcc     0.0000     0.000     0.000     0.000  0.0000  0.0000  1.0000
 
              Baa     0.0000     0.000     0.000     0.000  1.0000  0.0000  0.0000
    51 C(13)  Bbb     0.0000     0.000     0.000     0.000 -0.0000  1.0000  0.0000
              Bcc     0.0000     0.000     0.000     0.000  0.0000  0.0000  1.0000
 
              Baa     0.0000     0.000     0.000     0.000  1.0000  0.0000  0.0000
    52 H(1)   Bbb     0.0000     0.000     0.000     0.000 -0.0000  1.0000  0.0000
              Bcc     0.0000     0.000     0.000     0.000  0.0000  0.0000  1.0000
 
              Baa     0.0000     0.000     0.000     0.000  1.0000  0.0000  0.0000
    53 C(13)  Bbb     0.0000     0.000     0.000     0.000 -0.0000  1.0000  0.0000
              Bcc     0.0000     0.000     0.000     0.000  0.0000  0.0000  1.0000
 
              Baa     0.0000     0.000     0.000     0.000  1.0000  0.0000  0.0000
    54 C(13)  Bbb     0.0000     0.000     0.000     0.000 -0.0000  1.0000  0.0000
              Bcc     0.0000     0.000     0.000     0.000  0.0000  0.0000  1.0000
 
              Baa     0.0000     0.000     0.000     0.000  1.0000  0.0000  0.0000
    55 C(13)  Bbb     0.0000     0.000     0.000     0.000 -0.0000  1.0000  0.0000
              Bcc     0.0000     0.000     0.000     0.000  0.0000  0.0000  1.0000
 
              Baa     0.0000     0.000     0.000     0.000  1.0000  0.0000  0.0000
    56 C(13)  Bbb     0.0000     0.000     0.000     0.000 -0.0000  1.0000  0.0000
              Bcc     0.0000     0.000     0.000     0.000  0.0000  0.0000  1.0000
 
              Baa     0.0000     0.000     0.000     0.000  1.0000  0.0000  0.0000
    57 C(13)  Bbb     0.0000     0.000     0.000     0.000 -0.0000  1.0000  0.0000
              Bcc     0.0000     0.000     0.000     0.000  0.0000  0.0000  1.0000
 
              Baa     0.0000     0.000     0.000     0.000  1.0000  0.0000  0.0000
    58 C(13)  Bbb     0.0000     0.000     0.000     0.000 -0.0000  1.0000  0.0000
              Bcc     0.0000     0.000     0.000     0.000  0.0000  0.0000  1.0000
 
              Baa     0.0000     0.000     0.000     0.000  1.0000  0.0000  0.0000
    59 H(1)   Bbb     0.0000     0.000     0.000     0.000 -0.0000  1.0000  0.0000
              Bcc     0.0000     0.000     0.000     0.000  0.0000  0.0000  1.0000
 
              Baa     0.0000     0.000     0.000     0.000  1.0000  0.0000  0.0000
    60 H(1)   Bbb     0.0000     0.000     0.000     0.000 -0.0000  1.0000  0.0000
              Bcc     0.0000     0.000     0.000     0.000  0.0000  0.0000  1.0000
 
              Baa     0.0000     0.000     0.000     0.000  1.0000  0.0000  0.0000
    61 H(1)   Bbb     0.0000     0.000     0.000     0.000 -0.0000  1.0000  0.0000
              Bcc     0.0000     0.000     0.000     0.000  0.0000  0.0000  1.0000
 
              Baa     0.0000     0.000     0.000     0.000  1.0000  0.0000  0.0000
    62 N(14)  Bbb     0.0000     0.000     0.000     0.000 -0.0000  1.0000  0.0000
              Bcc     0.0000     0.000     0.000     0.000  0.0000  0.0000  1.0000
 
              Baa     0.0000     0.000     0.000     0.000  1.0000  0.0000  0.0000
    63 N(14)  Bbb     0.0000     0.000     0.000     0.000 -0.0000  1.0000  0.0000
              Bcc     0.0000     0.000     0.000     0.000  0.0000  0.0000  1.0000
 
              Baa     0.0000     0.000     0.000     0.000  1.0000  0.0000  0.0000
    64 N(14)  Bbb     0.0000     0.000     0.000     0.000 -0.0000  1.0000  0.0000
              Bcc     0.0000     0.000     0.000     0.000  0.0000  0.0000  1.0000
 
              Baa     0.0000     0.000     0.000     0.000  1.0000  0.0000  0.0000
    65 N(14)  Bbb     0.0000     0.000     0.000     0.000 -0.0000  1.0000  0.0000
              Bcc     0.0000     0.000     0.000     0.000  0.0000  0.0000  1.0000
 
              Baa     0.0000     0.000     0.000     0.000  1.0000  0.0000  0.0000
    66 C(13)  Bbb     0.0000     0.000     0.000     0.000 -0.0000  1.0000  0.0000
              Bcc     0.0000     0.000     0.000     0.000  0.0000  0.0000  1.0000
 
              Baa     0.0000     0.000     0.000     0.000  1.0000  0.0000  0.0000
    67 H(1)   Bbb     0.0000     0.000     0.000     0.000 -0.0000  1.0000  0.0000
              Bcc     0.0000     0.000     0.000     0.000  0.0000  0.0000  1.0000
 
              Baa     0.0000     0.000     0.000     0.000  1.0000  0.0000  0.0000
    68 Lu(175 Bbb     0.0000     0.000     0.000     0.000 -0.0000  1.0000  0.0000
              Bcc     0.0000     0.000     0.000     0.000  0.0000  0.0000  1.0000
 
              Baa     0.0000    -0.000    -0.000    -0.000  1.0000  0.0000  0.0000
    69 O(17)  Bbb     0.0000    -0.000    -0.000    -0.000 -0.0000  1.0000  0.0000
              Bcc     0.0000    -0.000    -0.000    -0.000  0.0000  0.0000  1.0000
 

 ---------------------------------------------------------------------------------

 No NMR shielding tensors so no spin-rotation constants.
 Leave Link  601 at Sun Apr 27 04:07:59 2025, MaxMem= 82678120448 cpu:             332.6 elap:              14.7
 (Enter /sysapps/ubuntu-applications/gaussian-new/avx/g16/l9999.exe)
 1\1\GINC-ACIDSCN006\FOpt\UMN15\GenECP\C22H16F9Lu1N4O14S3\SGOZEM\27-Apr
 -2025\0\\#P UMN15/genecp scf=(maxcyc=500) opt scrf=(smd,solvent=DiChlo
 roEthane)\\Opt\\0,1\C,4.7038937495,-1.1459525469,0.9493423513\C,6.0127
 202262,-0.7212311772,0.6955507463\C,6.9377729397,-0.6428197234,1.73905
 35464\C,6.5606118587,-1.0005064391,3.0341251216\C,5.2621091387,-1.4589
 61119,3.2830156664\C,4.3374995751,-1.5394556768,2.2435099149\C,2.36190
 31193,-0.6325413237,-0.1536416004\C,1.6486619987,-0.2965684482,-1.4462
 772966\C,1.7279041089,0.0348773518,1.0505127828\H,6.3027720798,-0.4481
 632661,-0.3221995399\H,7.9556362425,-0.3021235288,1.5375267982\H,7.282
 1877859,-0.9362259778,3.8517180911\H,4.9722585067,-1.7610049783,4.2918
 716453\H,3.3268317918,-1.9126410395,2.4337954945\O,0.5255782267,-0.072
 447267,1.2864511875\O,0.4246297126,-0.1547613122,-1.4891072761\O,2.410
 5069353,-0.233409111,-2.4821763957\O,2.5356090727,0.7181422569,1.79038
 41437\C,1.812470158,0.0679932326,-3.7530372056\C,2.0453727782,1.298440
 9478,3.0100747325\H,2.6410839775,0.1522039688,-4.4618623485\H,1.261120
 3894,1.0154537593,-3.6817839267\H,1.1296088088,-0.7421090884,-4.040382
 7924\H,2.8969919072,1.8286728479,3.4481405098\H,1.6989806338,0.4991859
 103,3.679195497\H,1.2163251922,1.9847793944,2.7912126549\O,-2.37414616
 58,0.1100445445,1.9041370593\O,-2.6978091013,0.5874883842,-1.389702106
 1\O,-0.2708047863,-2.6040372027,0.3053826946\S,-0.9312008259,-3.321286
 7543,-0.837697131\S,-3.3643433455,-1.0150513348,1.9964707733\S,-2.1177
 10007,1.9610215876,-1.2126370315\O,-1.6306384351,-2.2488809842,-1.6088
 020732\O,-1.6510464665,-4.5301701316,-0.5389455216\O,-3.0921984885,-1.
 8458986934,0.7840297\O,-3.4986047046,-1.6793410393,3.2641310198\O,-1.0
 704840402,1.8092009723,-0.1618998376\O,-1.780249696,2.6819829172,-2.41
 52476788\C,-3.4573704725,2.9427882418,-0.4078603527\C,-4.9936560507,-0
 .2223343637,1.6604265072\C,0.4706866785,-3.8580752525,-1.9094362819\F,
 -3.1183380915,4.2181862385,-0.4526097407\F,-3.5962842993,2.5676370622,
 0.8480228055\F,-4.5844841056,2.7555279824,-1.0621429718\F,-5.024763096
 9,0.2239418275,0.4181448984\F,-5.1632904068,0.7795283826,2.5003979948\
 F,-5.9433944075,-1.1187207912,1.8342810222\F,1.0832749088,-2.806087878
 9,-2.4316424539\F,-0.0072824537,-4.6072318703,-2.8831717805\F,1.321160
 2058,-4.5535870223,-1.1854328669\C,3.7355689786,-1.1989291998,-0.18238
 26193\H,4.1887454989,-1.2316826778,-1.1800070631\C,4.1675906186,2.4527
 07946,-0.2937665956\C,4.7482620626,1.7851149381,-1.390617915\C,4.79571
 29373,2.5014460533,0.9656004671\C,1.1523447672,4.481685226,0.263432475
 3\C,1.1830670898,3.4734882502,-1.8811794395\C,0.5385619799,4.317049218
 4,-0.9692711251\H,0.7234519713,5.1041077051,1.0496516255\H,0.751270917
 5,3.2603236561,-2.8618254791\H,-0.4123920547,4.7860183764,-1.219643058
 1\N,5.2707235045,1.2148028459,-2.2647779215\N,5.2836583442,2.549059769
 8,2.0253840025\N,2.9202026679,3.0703472182,-0.4610609256\N,2.330999997
 3,2.8631505249,-1.6360890578\C,2.358915529,3.8407912915,0.504069507\H,
 2.9172693633,3.94278993,1.4351832321\Lu,-1.2869643728,-0.5623547449,-0
 .0111684564\O,2.5877949398,-2.018762795,-0.0277388028\\Version=ES64L-G
 16RevA.03\State=1-A\HF=-5446.2069458\S2=0.\S2-1=0.\S2A=0.\RMSD=8.187e-
 09\RMSF=7.605e-06\Dipole=1.9276831,5.0180498,-0.0214103\Quadrupole=-26
 .4235728,13.3991888,13.024384,-17.3515355,7.7825044,6.0331191\PG=C01 [
 X(C22H16F9Lu1N4O14S3)]\\@


 MEN HAVE BECOME THE TOOLS OF THEIR TOOLS... THOREAU   
 Job cpu time:       7 days 15 hours  5 minutes 15.1 seconds.
 Elapsed time:       0 days  7 hours 59 minutes  8.2 seconds.
 File lengths (MBytes):  RWF=   1384 Int=      0 D2E=      0 Chk=     92 Scr=      8
 Normal termination of Gaussian 16 at Sun Apr 27 04:08:04 2025.
