 Entering Gaussian System, Link 0=/sysapps/ubuntu-applications/gaussian-new/avx/g16//g16
 Input=irc-min.in
 Output=irc-min.log
 Initial command:
 /sysapps/ubuntu-applications/gaussian-new/avx/g16/l1.exe "/data/temp-scratch/selhajj1/7630653/Gau-3877935.inp" -scrdir="/data/temp-scratch/selhajj1/7630653/"
 Entering Link 1 = /sysapps/ubuntu-applications/gaussian-new/avx/g16/l1.exe PID=   3877937.
  
 Copyright (c) 1988,1990,1992,1993,1995,1998,2003,2009,2016,
            Gaussian, Inc.  All Rights Reserved.
  
 This is part of the Gaussian(R) 16 program.  It is based on
 the Gaussian(R) 09 system (copyright 2009, Gaussian, Inc.),
 the Gaussian(R) 03 system (copyright 2003, Gaussian, Inc.),
 the Gaussian(R) 98 system (copyright 1998, Gaussian, Inc.),
 the Gaussian(R) 94 system (copyright 1995, Gaussian, Inc.),
 the Gaussian 92(TM) system (copyright 1992, Gaussian, Inc.),
 the Gaussian 90(TM) system (copyright 1990, Gaussian, Inc.),
 the Gaussian 88(TM) system (copyright 1988, Gaussian, Inc.),
 the Gaussian 86(TM) system (copyright 1986, Carnegie Mellon
 University), and the Gaussian 82(TM) system (copyright 1983,
 Carnegie Mellon University). Gaussian is a federally registered
 trademark of Gaussian, Inc.
  
 This software contains proprietary and confidential information,
 including trade secrets, belonging to Gaussian, Inc.
  
 This software is provided under written license and may be
 used, copied, transmitted, or stored only in accord with that
 written license.
  
 The following legend is applicable only to US Government
 contracts under FAR:
  
                    RESTRICTED RIGHTS LEGEND
  
 Use, reproduction and disclosure by the US Government is
 subject to restrictions as set forth in subparagraphs (a)
 and (c) of the Commercial Computer Software - Restricted
 Rights clause in FAR 52.227-19.
  
 Gaussian, Inc.
 340 Quinnipiac St., Bldg. 40, Wallingford CT 06492
  
  
 ---------------------------------------------------------------
 Warning -- This program may not be used in any manner that
 competes with the business of Gaussian, Inc. or will provide
 assistance to any competitor of Gaussian, Inc.  The licensee
 of this program is prohibited from giving any competitor of
 Gaussian, Inc. access to this program.  By using this program,
 the user acknowledges that Gaussian, Inc. is engaged in the
 business of creating and licensing software in the field of
 computational chemistry and represents and warrants to the
 licensee that it is not a competitor of Gaussian, Inc. and that
 it will not use this program in any manner prohibited above.
 ---------------------------------------------------------------
  

 Cite this work as:
 Gaussian 16, Revision A.03,
 M. J. Frisch, G. W. Trucks, H. B. Schlegel, G. E. Scuseria, 
 M. A. Robb, J. R. Cheeseman, G. Scalmani, V. Barone, 
 G. A. Petersson, H. Nakatsuji, X. Li, M. Caricato, A. V. Marenich, 
 J. Bloino, B. G. Janesko, R. Gomperts, B. Mennucci, H. P. Hratchian, 
 J. V. Ortiz, A. F. Izmaylov, J. L. Sonnenberg, D. Williams-Young, 
 F. Ding, F. Lipparini, F. Egidi, J. Goings, B. Peng, A. Petrone, 
 T. Henderson, D. Ranasinghe, V. G. Zakrzewski, J. Gao, N. Rega, 
 G. Zheng, W. Liang, M. Hada, M. Ehara, K. Toyota, R. Fukuda, 
 J. Hasegawa, M. Ishida, T. Nakajima, Y. Honda, O. Kitao, H. Nakai, 
 T. Vreven, K. Throssell, J. A. Montgomery, Jr., J. E. Peralta, 
 F. Ogliaro, M. J. Bearpark, J. J. Heyd, E. N. Brothers, K. N. Kudin, 
 V. N. Staroverov, T. A. Keith, R. Kobayashi, J. Normand, 
 K. Raghavachari, A. P. Rendell, J. C. Burant, S. S. Iyengar, 
 J. Tomasi, M. Cossi, J. M. Millam, M. Klene, C. Adamo, R. Cammi, 
 J. W. Ochterski, R. L. Martin, K. Morokuma, O. Farkas, 
 J. B. Foresman, and D. J. Fox, Gaussian, Inc., Wallingford CT, 2016.
 
 ******************************************
 Gaussian 16:  ES64L-G16RevA.03 25-Dec-2016
                 3-Mar-2025 
 ******************************************
 %chk=ts-min.chk
 %mem=616Gb
 %nprocshared=24
 Will use up to   24 processors via shared memory.
 ----------------------------------------------------------------------
 # irc=(maxpoints=100,recorrect=never,calcfc,maxcycles=500,nogradstop) 
 MN15/gen scrf=(smd,solvent=DiChloroEthane)
 ----------------------------------------------------------------------
 1/6=500,10=4,18=10,26=3,38=1,42=100,44=3,108=-1,131=1,172=1/1,23;
 2/12=2,17=6,18=5,29=1,40=1/2;
 3/5=7,11=2,25=1,30=1,70=32201,71=2,72=10,74=-73,140=1/1,2,3;
 4//1;
 5/5=2,38=5,53=10/2;
 8/6=4,10=90,11=11/1;
 11/6=1,8=1,9=11,15=111,16=1/1,2,10;
 10/6=1,13=1/2;
 6/7=2,8=2,9=2,10=2,28=1/1;
 7/10=1,18=20,25=1/1,2,3,16;
 1/6=500,10=4,18=10,26=3,42=100,44=3,108=-1,131=1/23(2);
 2/29=1/2;
 99/5=20/99;
 2/29=1/2;
 3/5=7,6=1,11=2,25=1,30=1,70=32205,71=2,72=10,74=-73,82=7,140=1/1,2,3;
 4/5=5,16=3,69=1/1;
 5/5=2,38=5,53=10/2;
 8/6=4,10=90,11=11/1;
 11/6=1,8=1,9=11,15=111,16=1/1,2,10;
 10/6=1,13=1/2;
 7/10=1,18=20,25=1/1,2,3,16;
 1/6=500,18=10,26=3,42=100,44=3,108=-1,131=1/23(-8);
 2/29=1/2;
 6/7=2,8=2,9=2,10=2,19=2,28=1/1;
 99/5=20,9=1/99;
 -----------------------------------------------------------
 IRC for Going from i2 to i3, where we are forming bond 1-44
 -----------------------------------------------------------
 Symbolic Z-matrix:
 Charge =  0 Multiplicity = 1
 C                    -1.83046  -0.11868   0.9787 
 C                    -1.42087   0.16229  -0.40609 
 C                    -0.75832  -0.27452   1.97558 
 O                     0.4223   -0.53735   1.65125 
 O                    -0.24556   0.03212  -0.80907 
 O                     3.40757  -0.94922   0.96374 
 O                     2.55607  -0.38534  -1.81228 
 O                     0.43396   2.07108   0.89457 
 S                     1.16941   2.97709  -0.02667 
 S                     3.93842   0.16638   1.81125 
 S                     2.28805  -1.86236  -1.79189 
 O                     2.02483   2.07517  -0.86752 
 O                     1.78042   4.165     0.51251 
 O                     2.90056   1.23149   1.68533 
 O                     4.44578  -0.15414   3.11759 
 O                     1.53672  -2.0886   -0.52819 
 O                     1.77087  -2.45799  -2.99855 
 C                     3.96932  -2.63719  -1.52381 
 C                     5.34773   0.80465   0.81506 
 C                    -0.13196   3.57844  -1.19983 
 F                     3.92372  -3.43442  -0.47624 
 F                     4.87989  -1.70236  -1.33808 
 F                     4.28006  -3.33998  -2.59709 
 F                     4.90541   1.09115  -0.3968 
 F                     6.28578  -0.11942   0.74213 
 F                     5.83385   1.89188   1.38071 
 F                    -1.26098   3.7486   -0.528 
 F                    -0.32671   2.69391  -2.15964 
 F                     0.24402   4.72592  -1.72717 
 C                    -4.56429   0.0262    1.16594 
 C                    -4.63949  -1.53171   1.24254 
 C                    -5.96455  -2.06723   0.86434 
 C                    -4.44754  -1.89756   2.66856 
 C                    -1.29029  -2.77481   0.14245 
 C                    -2.98001  -3.05917  -1.54425 
 C                    -1.6168   -3.20356  -1.10009 
 H                    -0.28904  -2.88802   0.55568 
 H                    -3.29029  -3.38884  -2.53806 
 H                    -0.88006  -3.67802  -1.75025 
 N                    -7.02248  -2.47992   0.64651 
 N                    -4.29614  -2.13345   3.79112 
 N                    -3.581    -2.18379   0.45437 
 N                    -3.9155   -2.57592  -0.78611 
 C                    -2.28983  -2.08616   0.93215 
 H                    -2.22389  -2.19231   2.01891 
 C                    -3.12066   0.54342   1.49015 
 H                    -3.10398   1.60427   1.19423 
 H                    -3.06021   0.55581   2.58387 
 Sc                    1.64756   0.14622   0.1129 
 H                    -5.14308   0.35252   2.04441 
 C                    -5.27041   0.70705  -0.00146 
 C                    -5.49175   2.08579   0.15215 
 C                    -5.71561   0.09092  -1.17702 
 C                    -6.11428   2.8327   -0.84642 
 H                    -5.17338   2.58018   1.07504 
 C                    -6.34755   0.83739  -2.17713 
 H                    -5.55264  -0.97415  -1.3483 
 C                    -6.54451   2.20863  -2.02094 
 H                    -6.27252   3.90378  -0.70225 
 H                    -6.68065   0.3343   -3.08754 
 H                    -7.03483   2.78845  -2.80591 
 C                    -1.04834  -0.22068   3.44007 
 H                    -1.22614   0.83133   3.7195 
 H                    -1.94842  -0.78912   3.71872 
 H                    -0.17411  -0.59145   3.98668 
 C                    -2.43445   0.57968  -1.41336 
 H                    -3.25878  -0.14236  -1.45426 
 H                    -2.87926   1.5467   -1.12576 
 H                    -1.95994   0.65922  -2.39705 
 
 IRC-IRC-IRC-IRC-IRC-IRC-IRC-IRC-IRC-IRC-IRC-IRC-IRC-IRC-IRC-IRC-IRC-IRC
 ------------------------------------------------------------------------
 INPUT DATA FOR L123
 ------------------------------------------------------------------------
 GENERAL PARAMETERS:
 Follow reaction path in both directions.
 Maximum points per path      = 100
 Step size                    =   0.100 bohr
 Integration scheme           = HPC                                 
    Redo corrector integration= Never                               
    DWI Weight Power          =  2
    DWI will use Hessian update vectors when possible.
 Initial Hessian              = CalcFC
 Hessian evaluation           = All updating
 Hessian updating method      = Bofill                              
 ------------------------------------------------------------------------
 IRC-IRC-IRC-IRC-IRC-IRC-IRC-IRC-IRC-IRC-IRC-IRC-IRC-IRC-IRC-IRC-IRC-IRC
 Symmetry turned off by external request.
 Stoichiometry    C23H18F9N4O11S3Sc
 Framework group  C1[X(C23H18F9N4O11S3Sc)]
 Deg. of freedom   201
 Full point group                 C1      NOp   1
                          Input orientation:                          
 ---------------------------------------------------------------------
 Center     Atomic      Atomic             Coordinates (Angstroms)
 Number     Number       Type             X           Y           Z
 ---------------------------------------------------------------------
      1          6           0       -1.830457   -0.118679    0.978697
      2          6           0       -1.420867    0.162289   -0.406093
      3          6           0       -0.758315   -0.274517    1.975575
      4          8           0        0.422303   -0.537353    1.651252
      5          8           0       -0.245558    0.032124   -0.809067
      6          8           0        3.407572   -0.949215    0.963739
      7          8           0        2.556070   -0.385340   -1.812276
      8          8           0        0.433957    2.071082    0.894569
      9         16           0        1.169408    2.977094   -0.026668
     10         16           0        3.938415    0.166382    1.811245
     11         16           0        2.288053   -1.862361   -1.791892
     12          8           0        2.024828    2.075168   -0.867524
     13          8           0        1.780415    4.164996    0.512505
     14          8           0        2.900557    1.231488    1.685331
     15          8           0        4.445780   -0.154137    3.117589
     16          8           0        1.536720   -2.088600   -0.528188
     17          8           0        1.770869   -2.457985   -2.998551
     18          6           0        3.969317   -2.637187   -1.523805
     19          6           0        5.347733    0.804645    0.815059
     20          6           0       -0.131958    3.578441   -1.199827
     21          9           0        3.923722   -3.434420   -0.476237
     22          9           0        4.879894   -1.702364   -1.338079
     23          9           0        4.280060   -3.339980   -2.597085
     24          9           0        4.905413    1.091151   -0.396796
     25          9           0        6.285780   -0.119417    0.742133
     26          9           0        5.833851    1.891878    1.380711
     27          9           0       -1.260979    3.748602   -0.527996
     28          9           0       -0.326707    2.693912   -2.159637
     29          9           0        0.244022    4.725915   -1.727167
     30          6           0       -4.564286    0.026202    1.165936
     31          6           0       -4.639491   -1.531705    1.242542
     32          6           0       -5.964546   -2.067228    0.864341
     33          6           0       -4.447537   -1.897556    2.668562
     34          6           0       -1.290294   -2.774807    0.142452
     35          6           0       -2.980009   -3.059170   -1.544249
     36          6           0       -1.616800   -3.203564   -1.100094
     37          1           0       -0.289042   -2.888023    0.555683
     38          1           0       -3.290291   -3.388844   -2.538059
     39          1           0       -0.880059   -3.678021   -1.750251
     40          7           0       -7.022475   -2.479920    0.646506
     41          7           0       -4.296135   -2.133448    3.791119
     42          7           0       -3.580996   -2.183787    0.454366
     43          7           0       -3.915495   -2.575922   -0.786108
     44          6           0       -2.289831   -2.086159    0.932151
     45          1           0       -2.223892   -2.192311    2.018911
     46          6           0       -3.120660    0.543424    1.490152
     47          1           0       -3.103981    1.604267    1.194230
     48          1           0       -3.060211    0.555806    2.583867
     49         21           0        1.647555    0.146223    0.112895
     50          1           0       -5.143075    0.352519    2.044405
     51          6           0       -5.270406    0.707049   -0.001455
     52          6           0       -5.491748    2.085787    0.152148
     53          6           0       -5.715611    0.090915   -1.177020
     54          6           0       -6.114282    2.832701   -0.846422
     55          1           0       -5.173381    2.580183    1.075043
     56          6           0       -6.347546    0.837392   -2.177131
     57          1           0       -5.552644   -0.974150   -1.348299
     58          6           0       -6.544511    2.208630   -2.020935
     59          1           0       -6.272521    3.903784   -0.702254
     60          1           0       -6.680652    0.334302   -3.087537
     61          1           0       -7.034826    2.788454   -2.805910
     62          6           0       -1.048337   -0.220678    3.440071
     63          1           0       -1.226143    0.831333    3.719500
     64          1           0       -1.948418   -0.789124    3.718719
     65          1           0       -0.174112   -0.591453    3.986676
     66          6           0       -2.434447    0.579679   -1.413362
     67          1           0       -3.258777   -0.142357   -1.454260
     68          1           0       -2.879260    1.546697   -1.125761
     69          1           0       -1.959935    0.659221   -2.397051
 ---------------------------------------------------------------------
 Rotational constants (GHZ):           0.0869280           0.0385081           0.0338956
 General basis read from cards:  (5D, 7F)
   847 basis functions,  1514 primitive gaussians,   904 cartesian basis functions
   211 alpha electrons      211 beta electrons
       nuclear repulsion energy      9975.4559348993 Hartrees.
 NAtoms=   69 NActive=   69 NUniq=   69 SFac= 1.00D+00 NAtFMM=   60 NAOKFM=T Big=T
 Integral buffers will be    131072 words long.
 Raffenetti 2 integral format.
 Two-electron integral symmetry is turned off.
 Force inversion solution in PCM.
 ------------------------------------------------------------------------------
 Polarizable Continuum Model (PCM)
 =================================
 Model                : PCM.
 Atomic radii         : SMD-Coulomb.
 Polarization charges : Total charges.
 Charge compensation  : None.
 Solution method      : Matrix inversion.
 Cavity type          : VdW (van der Waals Surface) (Alpha=1.000).
 Cavity algorithm     : GePol (No added spheres)
                        Default sphere list used, NSphG=   69.
                        Lebedev-Laikov grids with approx.  5.0 points / Ang**2.
                        Smoothing algorithm: York/Karplus (Gamma=1.0000).
                        Polarization charges: spherical gaussians, with
                                              point-specific exponents (IZeta= 3).
                        Self-potential: point-specific (ISelfS= 7).
                        Self-field    : sphere-specific E.n sum rule (ISelfD= 2).
 1st derivatives      : Analytical E(r).r(x)/FMM algorithm (CHGder, D1EAlg=3).
                        Cavity 1st derivative terms included.
 2nd derivatives      : Analytical E(r).r(xy)/FMM algorithm (CHGder, D2EAlg=3).
                        Cavity 2nd derivative terms included.
 Solvent              : DiChloroEthane, Eps=  10.125000 Eps(inf)=   2.087447
 ------------------------------------------------------------------------------
 ------------------------------------------------------------------------------
 Atomic radii for non-electrostatic terms: SMD-CDS.
 ------------------------------------------------------------------------------
 Nuclear repulsion after PCM non-electrostatic terms =     9975.4599112543 Hartrees.
 One-electron integrals computed using PRISM.
 NBasis=   847 RedAO= T EigKep=  1.80D-04  NBF=   847
 NBsUse=   847 1.00D-06 EigRej= -1.00D+00 NBFU=   847
 ExpMin= 3.01D-02 ExpMax= 1.92D+05 ExpMxC= 1.85D+03 IAcc=3 IRadAn=         5 AccDes= 0.00D+00
 Harris functional with IExCor= 1009 and IRadAn=       5 diagonalized for initial guess.
 HarFok:  IExCor= 1009 AccDes= 0.00D+00 IRadAn=         5 IDoV= 1 UseB2=F ITyADJ=14
 ICtDFT=  3500011 ScaDFX=  1.000000  1.000000  1.000000  1.000000
 FoFCou: FMM=F IPFlag=           0 FMFlag=      100000 FMFlg1=        2001
         NFxFlg=           0 DoJE=T BraDBF=F KetDBF=T FulRan=T
         wScrn=  0.000000 ICntrl=       500 IOpCl=  0 I1Cent=   200000004 NGrid=           0
         NMat0=    1 NMatS0=      1 NMatT0=    0 NMatD0=    1 NMtDS0=    0 NMtDT0=    0
 Symmetry not used in FoFCou.
 Requested convergence on RMS density matrix=1.00D-08 within 128 cycles.
 Requested convergence on MAX density matrix=1.00D-06.
 Requested convergence on             energy=1.00D-06.
 No special actions if energy rises.
 Inv3:  Mode=1 IEnd=    69755052.
 Iteration    1 A*A^-1 deviation from unit magnitude is 9.88D-15 for   4820.
 Iteration    1 A*A^-1 deviation from orthogonality  is 5.78D-15 for   4792   4619.
 Iteration    1 A^-1*A deviation from unit magnitude is 9.66D-15 for   4820.
 Iteration    1 A^-1*A deviation from orthogonality  is 2.97D-15 for   4796   4025.
 Error on total polarization charges =  0.03408
 SCF Done:  E(RMN15) =  -4781.69717900     A.U. after   15 cycles
            NFock= 15  Conv=0.44D-08     -V/T= 2.0064
 SMD-CDS (non-electrostatic) energy       (kcal/mol) =       2.50
 (included in total energy above)
 DoSCS=F DFT=T ScalE2(SS,OS)=  1.000000  1.000000
 Range of M.O.s used for correlation:     1   847
 NBasis=   847 NAE=   211 NBE=   211 NFC=     0 NFV=     0
 NROrb=    847 NOA=   211 NOB=   211 NVA=   636 NVB=   636

 **** Warning!!: The largest alpha MO coefficient is  0.10990181D+02

 Symmetrizing basis deriv contribution to polar:
 IMax=3 JMax=2 DiffMx= 0.00D+00
 G2DrvN: will do    70 centers at a time, making    1 passes.
 Calling FoFCou, ICntrl=  3107 FMM=T I1Cent=   0 AccDes= 0.00D+00.
 NEqPCM:  Using equilibrium solvation (IEInf=0, Eps=  10.1250, EpsInf=   2.0874)
 G2PCM: DoFxE=T DoFxN=T DoGrad=T DoDP/DQ/DG/TGxP=FFFF NFrqRd=   0 IEInf=0 SqF1=F DoCFld=F IF1Alg=4.
 End of G2Drv F.D. properties file   721 does not exist.
 End of G2Drv F.D. properties file   722 does not exist.
 End of G2Drv F.D. properties file   788 does not exist.
          IDoAtm=11111111111111111111111111111111111111111111111111
          IDoAtm=1111111111111111111
 NEqPCM:  Using equilibrium solvation (IEInf=0, Eps=  10.1250, EpsInf=   2.0874)
          Differentiating once with respect to nuclear coordinates.
 CalDSu exits because no D1Ps are significant.
          There are   210 degrees of freedom in the 1st order CPHF.  IDoFFX=6 NUNeed=     0.
    207 vectors produced by pass  0 Test12= 1.34D-13 1.00D-09 XBig12= 1.85D-01 1.83D-01.
 AX will form    72 AO Fock derivatives at one time.
    204 vectors produced by pass  1 Test12= 1.34D-13 1.00D-09 XBig12= 4.61D-02 4.79D-02.
    204 vectors produced by pass  2 Test12= 1.34D-13 1.00D-09 XBig12= 1.24D-03 4.32D-03.
    204 vectors produced by pass  3 Test12= 1.34D-13 1.00D-09 XBig12= 1.86D-05 5.82D-04.
    204 vectors produced by pass  4 Test12= 1.34D-13 1.00D-09 XBig12= 1.79D-07 3.69D-05.
    204 vectors produced by pass  5 Test12= 1.34D-13 1.00D-09 XBig12= 9.45D-10 3.48D-06.
    168 vectors produced by pass  6 Test12= 1.34D-13 1.00D-09 XBig12= 4.22D-12 2.41D-07.
     54 vectors produced by pass  7 Test12= 1.34D-13 1.00D-09 XBig12= 1.54D-14 1.12D-08.
      2 vectors produced by pass  8 Test12= 1.34D-13 1.00D-09 XBig12= 1.14D-15 1.22D-09.
 InvSVY:  IOpt=1 It=  1 EMax= 6.66D-16
 Solved reduced A of dimension  1451 with   210 vectors.
 End of Minotr F.D. properties file   721 does not exist.
 End of Minotr F.D. properties file   722 does not exist.
 End of Minotr F.D. properties file   788 does not exist.

 **********************************************************************

            Population analysis using the SCF density.

 **********************************************************************

 Alpha  occ. eigenvalues -- -160.21015 -88.06273 -88.05696 -88.05637 -24.34192
 Alpha  occ. eigenvalues --  -24.34130 -24.34087 -24.34080 -24.34065 -24.33906
 Alpha  occ. eigenvalues --  -24.33582 -24.33530 -24.33502 -18.85567 -18.85400
 Alpha  occ. eigenvalues --  -18.84886 -18.84725 -18.84312 -18.84253 -18.83890
 Alpha  occ. eigenvalues --  -18.83809 -18.83774 -18.83179 -18.83032 -17.19569
 Alpha  occ. eigenvalues --  -14.49708 -14.49706 -14.49629 -14.23338 -14.18072
 Alpha  occ. eigenvalues --  -14.14988 -14.14075 -10.33592 -10.33314 -10.33226
 Alpha  occ. eigenvalues --  -10.21736 -10.18822 -10.18566 -10.17535 -10.14126
 Alpha  occ. eigenvalues --  -10.13530 -10.12268 -10.11443 -10.10383 -10.10005
 Alpha  occ. eigenvalues --  -10.09726 -10.09109 -10.08014 -10.06565 -10.06305
 Alpha  occ. eigenvalues --  -10.06264 -10.06241 -10.06128 -10.06054 -10.05931
 Alpha  occ. eigenvalues --   -7.96105  -7.95480  -7.95462  -6.15622  -6.15576
 Alpha  occ. eigenvalues --   -6.15448  -6.15002  -6.14983  -6.14946  -6.14930
 Alpha  occ. eigenvalues --   -6.14846  -6.14811  -2.15838  -1.40460  -1.40330
 Alpha  occ. eigenvalues --   -1.40121  -1.37905  -1.37799  -1.37409  -1.27892
 Alpha  occ. eigenvalues --   -1.27889  -1.27774  -1.27727  -1.27367  -1.27263
 Alpha  occ. eigenvalues --   -1.20674  -1.19876  -1.19639  -1.13261  -1.11866
 Alpha  occ. eigenvalues --   -1.10008  -1.07767  -1.06836  -1.06666  -1.05497
 Alpha  occ. eigenvalues --   -1.04872  -1.04796  -0.99779  -0.97153  -0.95424
 Alpha  occ. eigenvalues --   -0.91246  -0.90399  -0.88050  -0.86019  -0.81556
 Alpha  occ. eigenvalues --   -0.80768  -0.80299  -0.79775  -0.79332  -0.78686
 Alpha  occ. eigenvalues --   -0.77910  -0.75726  -0.75306  -0.73047  -0.72238
 Alpha  occ. eigenvalues --   -0.71969  -0.71614  -0.68866  -0.67854  -0.67791
 Alpha  occ. eigenvalues --   -0.67769  -0.67669  -0.67319  -0.67283  -0.66019
 Alpha  occ. eigenvalues --   -0.64883  -0.64486  -0.64324  -0.63319  -0.62735
 Alpha  occ. eigenvalues --   -0.62516  -0.61447  -0.60054  -0.59571  -0.58201
 Alpha  occ. eigenvalues --   -0.57801  -0.57733  -0.56978  -0.56398  -0.56039
 Alpha  occ. eigenvalues --   -0.55960  -0.55609  -0.55416  -0.55171  -0.55123
 Alpha  occ. eigenvalues --   -0.54928  -0.54822  -0.54528  -0.54425  -0.54046
 Alpha  occ. eigenvalues --   -0.53808  -0.53675  -0.53537  -0.53167  -0.53066
 Alpha  occ. eigenvalues --   -0.52333  -0.51959  -0.51654  -0.51612  -0.51515
 Alpha  occ. eigenvalues --   -0.51225  -0.51055  -0.50839  -0.50391  -0.50063
 Alpha  occ. eigenvalues --   -0.49655  -0.49180  -0.49139  -0.48615  -0.48318
 Alpha  occ. eigenvalues --   -0.48139  -0.47837  -0.47285  -0.46831  -0.46736
 Alpha  occ. eigenvalues --   -0.46315  -0.45906  -0.45555  -0.45384  -0.44968
 Alpha  occ. eigenvalues --   -0.44709  -0.44493  -0.43745  -0.43476  -0.43375
 Alpha  occ. eigenvalues --   -0.42941  -0.42687  -0.42544  -0.42389  -0.41994
 Alpha  occ. eigenvalues --   -0.41679  -0.41504  -0.40960  -0.40810  -0.40692
 Alpha  occ. eigenvalues --   -0.40194  -0.39471  -0.39389  -0.39234  -0.39027
 Alpha  occ. eigenvalues --   -0.38606  -0.38475  -0.38233  -0.37928  -0.37602
 Alpha  occ. eigenvalues --   -0.37322  -0.37003  -0.36679  -0.36437  -0.36032
 Alpha  occ. eigenvalues --   -0.35806  -0.35693  -0.33165  -0.29658  -0.29074
 Alpha  occ. eigenvalues --   -0.27118
 Alpha virt. eigenvalues --   -0.07122  -0.05507  -0.04491  -0.01709  -0.01209
 Alpha virt. eigenvalues --   -0.00048   0.00291   0.00417   0.00938   0.01206
 Alpha virt. eigenvalues --    0.01818   0.04493   0.05141   0.05482   0.06275
 Alpha virt. eigenvalues --    0.07002   0.08248   0.08750   0.09302   0.09330
 Alpha virt. eigenvalues --    0.09580   0.09792   0.10018   0.10440   0.10943
 Alpha virt. eigenvalues --    0.11152   0.11294   0.11540   0.11592   0.11974
 Alpha virt. eigenvalues --    0.12586   0.13164   0.13527   0.13824   0.14185
 Alpha virt. eigenvalues --    0.14438   0.15257   0.15446   0.15824   0.16537
 Alpha virt. eigenvalues --    0.16610   0.17155   0.17277   0.17627   0.18153
 Alpha virt. eigenvalues --    0.18469   0.18724   0.19081   0.19496   0.20256
 Alpha virt. eigenvalues --    0.20645   0.21131   0.21849   0.22203   0.22493
 Alpha virt. eigenvalues --    0.22780   0.23201   0.23656   0.23841   0.24448
 Alpha virt. eigenvalues --    0.24770   0.24912   0.25288   0.25545   0.25850
 Alpha virt. eigenvalues --    0.26274   0.26546   0.27207   0.27410   0.27752
 Alpha virt. eigenvalues --    0.27927   0.28307   0.28608   0.28910   0.29031
 Alpha virt. eigenvalues --    0.29973   0.30343   0.30931   0.31867   0.32203
 Alpha virt. eigenvalues --    0.32738   0.32882   0.34181   0.35209   0.36096
 Alpha virt. eigenvalues --    0.36698   0.36996   0.38066   0.38737   0.39493
 Alpha virt. eigenvalues --    0.39944   0.40409   0.41043   0.41613   0.42172
 Alpha virt. eigenvalues --    0.42465   0.43753   0.43865   0.44454   0.44617
 Alpha virt. eigenvalues --    0.44971   0.45094   0.45943   0.46464   0.47021
 Alpha virt. eigenvalues --    0.47114   0.47354   0.47927   0.48078   0.48710
 Alpha virt. eigenvalues --    0.48812   0.49150   0.49413   0.49882   0.49957
 Alpha virt. eigenvalues --    0.50439   0.51000   0.51362   0.51766   0.51960
 Alpha virt. eigenvalues --    0.52579   0.53215   0.53641   0.54026   0.54614
 Alpha virt. eigenvalues --    0.54961   0.55072   0.55811   0.56141   0.56496
 Alpha virt. eigenvalues --    0.56891   0.57345   0.57758   0.58175   0.58343
 Alpha virt. eigenvalues --    0.58772   0.59651   0.60353   0.60460   0.61551
 Alpha virt. eigenvalues --    0.61754   0.62026   0.63010   0.63297   0.64107
 Alpha virt. eigenvalues --    0.64525   0.64836   0.65081   0.65548   0.66023
 Alpha virt. eigenvalues --    0.66114   0.66184   0.66733   0.67123   0.67423
 Alpha virt. eigenvalues --    0.67562   0.67735   0.67825   0.68178   0.68483
 Alpha virt. eigenvalues --    0.68741   0.69281   0.69569   0.69733   0.70269
 Alpha virt. eigenvalues --    0.70490   0.70504   0.70986   0.71344   0.71808
 Alpha virt. eigenvalues --    0.72034   0.72349   0.72510   0.72819   0.73083
 Alpha virt. eigenvalues --    0.73563   0.73790   0.74098   0.74704   0.75291
 Alpha virt. eigenvalues --    0.75482   0.75869   0.76179   0.76440   0.76909
 Alpha virt. eigenvalues --    0.77849   0.78394   0.78534   0.79064   0.79409
 Alpha virt. eigenvalues --    0.80037   0.80602   0.81111   0.81800   0.82534
 Alpha virt. eigenvalues --    0.83327   0.84022   0.84483   0.85413   0.85568
 Alpha virt. eigenvalues --    0.86221   0.86874   0.87304   0.87499   0.88008
 Alpha virt. eigenvalues --    0.88375   0.88834   0.89342   0.90330   0.90880
 Alpha virt. eigenvalues --    0.90977   0.91511   0.92118   0.93104   0.93469
 Alpha virt. eigenvalues --    0.93883   0.94677   0.94736   0.96268   0.96474
 Alpha virt. eigenvalues --    0.96696   0.97082   0.97595   0.98239   0.98501
 Alpha virt. eigenvalues --    0.98891   0.99945   1.00317   1.00993   1.01470
 Alpha virt. eigenvalues --    1.01975   1.02877   1.03188   1.03705   1.04598
 Alpha virt. eigenvalues --    1.04824   1.05000   1.05225   1.06286   1.06556
 Alpha virt. eigenvalues --    1.07288   1.08091   1.08227   1.08924   1.09211
 Alpha virt. eigenvalues --    1.09839   1.10127   1.10884   1.11181   1.11407
 Alpha virt. eigenvalues --    1.11948   1.12466   1.12769   1.13013   1.13567
 Alpha virt. eigenvalues --    1.14071   1.14318   1.14821   1.15132   1.15714
 Alpha virt. eigenvalues --    1.16300   1.17227   1.17472   1.17593   1.18063
 Alpha virt. eigenvalues --    1.18719   1.19131   1.19181   1.19666   1.20396
 Alpha virt. eigenvalues --    1.21167   1.21410   1.21743   1.21886   1.22420
 Alpha virt. eigenvalues --    1.22877   1.23452   1.23670   1.24374   1.24614
 Alpha virt. eigenvalues --    1.25039   1.25863   1.26088   1.26530   1.26690
 Alpha virt. eigenvalues --    1.27514   1.28150   1.28228   1.28421   1.28581
 Alpha virt. eigenvalues --    1.29408   1.30471   1.30859   1.31205   1.31723
 Alpha virt. eigenvalues --    1.31953   1.32807   1.32971   1.33683   1.34043
 Alpha virt. eigenvalues --    1.34313   1.34619   1.35293   1.35992   1.36458
 Alpha virt. eigenvalues --    1.36982   1.38108   1.38636   1.39436   1.39625
 Alpha virt. eigenvalues --    1.40599   1.40781   1.41467   1.41845   1.42301
 Alpha virt. eigenvalues --    1.42979   1.43396   1.43949   1.44515   1.45203
 Alpha virt. eigenvalues --    1.45657   1.46272   1.46530   1.46883   1.47403
 Alpha virt. eigenvalues --    1.48065   1.49521   1.49809   1.50415   1.50801
 Alpha virt. eigenvalues --    1.51372   1.52677   1.52995   1.53435   1.53659
 Alpha virt. eigenvalues --    1.55273   1.55480   1.56006   1.56250   1.56513
 Alpha virt. eigenvalues --    1.56887   1.57868   1.58122   1.58816   1.59156
 Alpha virt. eigenvalues --    1.59388   1.59548   1.60765   1.61045   1.61780
 Alpha virt. eigenvalues --    1.62554   1.63132   1.64371   1.64552   1.64894
 Alpha virt. eigenvalues --    1.64993   1.66232   1.66796   1.67740   1.68450
 Alpha virt. eigenvalues --    1.68900   1.69040   1.69074   1.69431   1.69720
 Alpha virt. eigenvalues --    1.70493   1.70943   1.71650   1.71936   1.72968
 Alpha virt. eigenvalues --    1.73329   1.73721   1.74117   1.74947   1.75400
 Alpha virt. eigenvalues --    1.75512   1.76020   1.76253   1.76521   1.77399
 Alpha virt. eigenvalues --    1.78183   1.78785   1.79436   1.80185   1.80534
 Alpha virt. eigenvalues --    1.80916   1.81351   1.82244   1.83144   1.83762
 Alpha virt. eigenvalues --    1.84570   1.84975   1.85265   1.85478   1.85734
 Alpha virt. eigenvalues --    1.85915   1.86420   1.86707   1.87135   1.87573
 Alpha virt. eigenvalues --    1.88206   1.88937   1.89048   1.89532   1.90428
 Alpha virt. eigenvalues --    1.91127   1.91421   1.91711   1.91975   1.92466
 Alpha virt. eigenvalues --    1.93001   1.93185   1.93301   1.94326   1.94512
 Alpha virt. eigenvalues --    1.95016   1.95842   1.96578   1.97250   1.97509
 Alpha virt. eigenvalues --    1.97846   1.98313   1.98568   1.98981   1.99477
 Alpha virt. eigenvalues --    1.99995   2.00482   2.01165   2.01462   2.01724
 Alpha virt. eigenvalues --    2.02086   2.03269   2.03682   2.04160   2.04871
 Alpha virt. eigenvalues --    2.05283   2.05603   2.06177   2.07361   2.08045
 Alpha virt. eigenvalues --    2.08493   2.10143   2.10839   2.11646   2.12257
 Alpha virt. eigenvalues --    2.12935   2.13470   2.13654   2.14889   2.15951
 Alpha virt. eigenvalues --    2.16473   2.17051   2.17859   2.18818   2.19786
 Alpha virt. eigenvalues --    2.20969   2.21694   2.22338   2.22981   2.23579
 Alpha virt. eigenvalues --    2.23749   2.24057   2.24765   2.25790   2.26052
 Alpha virt. eigenvalues --    2.26785   2.28696   2.30018   2.30374   2.31315
 Alpha virt. eigenvalues --    2.32928   2.34176   2.34911   2.35361   2.36406
 Alpha virt. eigenvalues --    2.37483   2.37944   2.39392   2.40288   2.41726
 Alpha virt. eigenvalues --    2.42943   2.44220   2.45820   2.45984   2.46704
 Alpha virt. eigenvalues --    2.47656   2.48011   2.50101   2.52708   2.54898
 Alpha virt. eigenvalues --    2.55102   2.55506   2.57230   2.57372   2.57915
 Alpha virt. eigenvalues --    2.58384   2.59335   2.59973   2.60266   2.60620
 Alpha virt. eigenvalues --    2.61256   2.61945   2.62295   2.62375   2.62749
 Alpha virt. eigenvalues --    2.63519   2.63838   2.64549   2.65145   2.65407
 Alpha virt. eigenvalues --    2.66427   2.66990   2.67508   2.68391   2.69049
 Alpha virt. eigenvalues --    2.69248   2.69919   2.70497   2.71132   2.71900
 Alpha virt. eigenvalues --    2.72639   2.73055   2.73812   2.74335   2.75208
 Alpha virt. eigenvalues --    2.76326   2.76685   2.78043   2.78445   2.79405
 Alpha virt. eigenvalues --    2.79778   2.79966   2.80386   2.80577   2.81701
 Alpha virt. eigenvalues --    2.82097   2.82252   2.82968   2.83323   2.84307
 Alpha virt. eigenvalues --    2.85173   2.87130   2.87247   2.88084   2.89185
 Alpha virt. eigenvalues --    2.89897   2.90138   2.91189   2.91517   2.92760
 Alpha virt. eigenvalues --    2.93004   2.93236   2.93744   2.93978   2.94504
 Alpha virt. eigenvalues --    2.95007   2.95696   2.96418   2.97537   2.98087
 Alpha virt. eigenvalues --    2.98171   2.98627   2.98727   2.99271   2.99762
 Alpha virt. eigenvalues --    3.00511   3.00772   3.01172   3.01866   3.02601
 Alpha virt. eigenvalues --    3.02743   3.02924   3.03020   3.03039   3.03088
 Alpha virt. eigenvalues --    3.03221   3.03291   3.03342   3.03619   3.03719
 Alpha virt. eigenvalues --    3.03799   3.04365   3.04458   3.04801   3.04856
 Alpha virt. eigenvalues --    3.05570   3.05848   3.06664   3.06737   3.07771
 Alpha virt. eigenvalues --    3.11450   3.12594   3.13064   3.14851   3.15028
 Alpha virt. eigenvalues --    3.15975   3.15987   3.16184   3.16355   3.16905
 Alpha virt. eigenvalues --    3.20892   3.21935   3.23098   3.31730   3.32433
 Alpha virt. eigenvalues --    3.33650   3.34859   3.34973   3.35652   3.37317
 Alpha virt. eigenvalues --    3.37379   3.37474   3.38429   3.38750   3.39229
 Alpha virt. eigenvalues --    3.39747   3.41895   3.50526   3.51618   3.51850
 Alpha virt. eigenvalues --    3.52269   3.52839   3.52998   3.53456   3.54721
 Alpha virt. eigenvalues --    3.58479   3.60464   3.66815   3.67926   3.68537
 Alpha virt. eigenvalues --    3.81227   3.81439   3.82677   3.83093   3.83504
 Alpha virt. eigenvalues --    3.84133
          Condensed to atoms (all electrons):
 Mulliken charges:
               1
     1  C   -0.235733
     2  C    0.062739
     3  C    0.074399
     4  O   -0.261133
     5  O   -0.234631
     6  O   -0.437768
     7  O   -0.440042
     8  O   -0.440392
     9  S    0.894366
    10  S    0.864989
    11  S    0.867787
    12  O   -0.443923
    13  O   -0.400253
    14  O   -0.430710
    15  O   -0.390993
    16  O   -0.437516
    17  O   -0.407288
    18  C    0.441974
    19  C    0.442934
    20  C    0.421646
    21  F   -0.118252
    22  F   -0.114209
    23  F   -0.125270
    24  F   -0.102992
    25  F   -0.120797
    26  F   -0.121086
    27  F   -0.129748
    28  F   -0.114305
    29  F   -0.120180
    30  C    0.093301
    31  C   -0.116692
    32  C   -0.181245
    33  C   -0.174188
    34  C    0.045438
    35  C    0.033871
    36  C    0.055816
    37  H    0.075377
    38  H    0.068576
    39  H    0.047591
    40  N    0.151909
    41  N    0.124887
    42  N   -0.134816
    43  N   -0.010739
    44  C    0.153847
    45  H    0.082753
    46  C    0.150064
    47  H    0.049741
    48  H    0.032455
    49  Sc   0.281513
    50  H    0.079994
    51  C   -0.031027
    52  C   -0.030930
    53  C    0.017333
    54  C    0.007610
    55  H    0.012385
    56  C    0.000976
    57  H   -0.002441
    58  C    0.008631
    59  H    0.012224
    60  H    0.008787
    61  H    0.013592
    62  C    0.118451
    63  H    0.094722
    64  H    0.047968
    65  H    0.063109
    66  C    0.175769
    67  H    0.012465
    68  H    0.055959
    69  H    0.061348
 Sum of Mulliken charges =  -0.00000
 Mulliken charges with hydrogens summed into heavy atoms:
               1
     1  C   -0.235733
     2  C    0.062739
     3  C    0.074399
     4  O   -0.261133
     5  O   -0.234631
     6  O   -0.437768
     7  O   -0.440042
     8  O   -0.440392
     9  S    0.894366
    10  S    0.864989
    11  S    0.867787
    12  O   -0.443923
    13  O   -0.400253
    14  O   -0.430710
    15  O   -0.390993
    16  O   -0.437516
    17  O   -0.407288
    18  C    0.441974
    19  C    0.442934
    20  C    0.421646
    21  F   -0.118252
    22  F   -0.114209
    23  F   -0.125270
    24  F   -0.102992
    25  F   -0.120797
    26  F   -0.121086
    27  F   -0.129748
    28  F   -0.114305
    29  F   -0.120180
    30  C    0.173295
    31  C   -0.116692
    32  C   -0.181245
    33  C   -0.174188
    34  C    0.120815
    35  C    0.102447
    36  C    0.103406
    40  N    0.151909
    41  N    0.124887
    42  N   -0.134816
    43  N   -0.010739
    44  C    0.236600
    46  C    0.232260
    49  Sc   0.281513
    51  C   -0.031027
    52  C   -0.018545
    53  C    0.014893
    54  C    0.019834
    56  C    0.009764
    58  C    0.022223
    62  C    0.324250
    66  C    0.305541
 APT charges:
               1
     1  C   -0.144725
     2  C   -0.341018
     3  C   -0.447772
     4  O   -0.368808
     5  O   -0.387902
     6  O   -0.616769
     7  O   -0.388055
     8  O   -0.699768
     9  S    0.019387
    10  S   -0.106644
    11  S    0.062655
    12  O   -0.430671
    13  O    0.710750
    14  O   -0.676683
    15  O    0.779139
    16  O   -0.608417
    17  O    0.313356
    18  C   -0.720037
    19  C   -0.670770
    20  C   -0.530477
    21  F    0.109382
    22  F    0.180114
    23  F    0.737187
    24  F   -0.279186
    25  F    0.641245
    26  F    0.614226
    27  F    0.050864
    28  F   -0.179116
    29  F    0.745919
    30  C   -0.370625
    31  C   -1.566010
    32  C   -3.215250
    33  C   -1.556061
    34  C   -0.642523
    35  C   -0.882242
    36  C   -0.068317
    37  H    0.090162
    38  H    0.913595
    39  H    0.426888
    40  N    4.376075
    41  N    1.970637
    42  N    0.020621
    43  N    0.287043
    44  C   -0.371388
    45  H    0.398459
    46  C   -0.631085
    47  H    0.221117
    48  H    0.496516
    49  Sc   0.335828
    50  H    0.834739
    51  C   -0.895658
    52  C   -0.447516
    53  C   -0.362936
    54  C   -0.477790
    55  H    0.147958
    56  C   -0.465074
    57  H    0.126770
    58  C   -0.610261
    59  H    0.885202
    60  H    0.844764
    61  H    1.254928
    62  C   -0.475655
    63  H    0.411648
    64  H    0.499212
    65  H    0.419248
    66  C   -0.379914
    67  H    0.400416
    68  H    0.408866
    69  H    0.280204
 Sum of APT charges =  -0.00000
 APT charges with hydrogens summed into heavy atoms:
               1
     1  C   -0.144725
     2  C   -0.341018
     3  C   -0.447772
     4  O   -0.368808
     5  O   -0.387902
     6  O   -0.616769
     7  O   -0.388055
     8  O   -0.699768
     9  S    0.019387
    10  S   -0.106644
    11  S    0.062655
    12  O   -0.430671
    13  O    0.710750
    14  O   -0.676683
    15  O    0.779139
    16  O   -0.608417
    17  O    0.313356
    18  C   -0.720037
    19  C   -0.670770
    20  C   -0.530477
    21  F    0.109382
    22  F    0.180114
    23  F    0.737187
    24  F   -0.279186
    25  F    0.641245
    26  F    0.614226
    27  F    0.050864
    28  F   -0.179116
    29  F    0.745919
    30  C    0.464115
    31  C   -1.566010
    32  C   -3.215250
    33  C   -1.556061
    34  C   -0.552361
    35  C    0.031353
    36  C    0.358571
    40  N    4.376075
    41  N    1.970637
    42  N    0.020621
    43  N    0.287043
    44  C    0.027072
    46  C    0.086548
    49  Sc   0.335828
    51  C   -0.895658
    52  C   -0.299558
    53  C   -0.236166
    54  C    0.407412
    56  C    0.379691
    58  C    0.644668
    62  C    0.854454
    66  C    0.709572
 Electronic spatial extent (au):  <R**2>=          31327.3989
 Charge=             -0.0000 electrons
 Dipole moment (field-independent basis, Debye):
    X=            -14.9711    Y=             -2.5377    Z=             -0.0205  Tot=             15.1847
 Quadrupole moment (field-independent basis, Debye-Ang):
   XX=           -345.6571   YY=           -324.2124   ZZ=           -324.1421
   XY=            -25.5683   XZ=              0.5017   YZ=              2.3650
 Traceless Quadrupole moment (field-independent basis, Debye-Ang):
   XX=            -14.3199   YY=              7.1248   ZZ=              7.1951
   XY=            -25.5683   XZ=              0.5017   YZ=              2.3650
 Octapole moment (field-independent basis, Debye-Ang**2):
  XXX=            458.4237  YYY=            -20.8963  ZZZ=            -80.9625  XYY=             28.0768
  XXY=            191.2683  XXZ=           -132.3400  XZZ=              0.2776  YZZ=             51.6040
  YYZ=            -58.3679  XYZ=            -42.9780
 Hexadecapole moment (field-independent basis, Debye-Ang**3):
 XXXX=         -28128.4853 YYYY=          -8493.1415 ZZZZ=          -5197.5154 XXXY=          -1505.1036
 XXXZ=            277.0753 YYYX=           -541.4770 YYYZ=             46.3810 ZZZX=            221.1320
 ZZZY=            141.0995 XXYY=          -5858.5874 XXZZ=          -5196.4416 YYZZ=          -2257.5505
 XXYZ=            138.6296 YYXZ=            146.0080 ZZXY=           -145.9459
 N-N= 9.975459911254D+03 E-N=-3.122201280221D+04  KE= 4.751145217749D+03
  Exact polarizability:   0.000   0.000   0.000   0.000   0.000   0.000
 Approx polarizability: 487.204   8.572 480.164  42.139  33.493 511.877
 D2PCM: PCM CHGder 2nd derivatives, FixD1E=F FixD2E=F DoIter=F DoCFld=F I1PDM=0
 Calling FoFJK, ICntrl=    100147 FMM=F ISym2X=0 I1Cent= 0 IOpClX= 0 NMat=1 NMatS=1 NMatT=0.
 -------------------------------------------------------------------
 Center     Atomic                   Forces (Hartrees/Bohr)
 Number     Number              X              Y              Z
 -------------------------------------------------------------------
      1        6          -0.000001298   -0.000010491   -0.000003609
      2        6           0.000001140   -0.000003349    0.000001126
      3        6          -0.000004395   -0.000011429   -0.000008230
      4        8           0.000006384    0.000010154    0.000009795
      5        8          -0.000002891    0.000019485   -0.000000861
      6        8           0.000000417   -0.000003335   -0.000001845
      7        8          -0.000002231    0.000003373   -0.000005305
      8        8           0.000004287    0.000003862    0.000005497
      9       16          -0.000006138   -0.000003029    0.000014857
     10       16           0.000000445   -0.000009206   -0.000002252
     11       16           0.000006925    0.000011430   -0.000010648
     12        8           0.000002008   -0.000000970    0.000006773
     13        8           0.000005464   -0.000001160    0.000008796
     14        8           0.000000162   -0.000005639    0.000002611
     15        8           0.000000460   -0.000008569    0.000000335
     16        8           0.000002743    0.000002393   -0.000006746
     17        8          -0.000005422    0.000002049   -0.000003299
     18        6           0.000000959    0.000006264   -0.000011254
     19        6           0.000000551   -0.000002048    0.000002103
     20        6           0.000001906    0.000001708    0.000006794
     21        9          -0.000001754   -0.000001166   -0.000011039
     22        9          -0.000000758    0.000002693   -0.000004007
     23        9          -0.000000368    0.000007721   -0.000011011
     24        9           0.000000053    0.000000920    0.000002371
     25        9          -0.000000648   -0.000004167   -0.000002600
     26        9           0.000001184   -0.000006265    0.000005244
     27        9          -0.000001668   -0.000003610    0.000010534
     28        9           0.000002525    0.000008000    0.000007807
     29        9          -0.000000926    0.000005653    0.000015080
     30        6          -0.000000626   -0.000002411   -0.000000779
     31        6          -0.000001512   -0.000002056   -0.000003060
     32        6          -0.000003605   -0.000002591   -0.000004700
     33        6          -0.000001142   -0.000007186    0.000006931
     34        6          -0.000003034   -0.000002988   -0.000005847
     35        6          -0.000003997    0.000000812   -0.000006109
     36        6          -0.000002395    0.000004867   -0.000008561
     37        1          -0.000001515   -0.000002492   -0.000007433
     38        1          -0.000000898    0.000008936   -0.000009509
     39        1          -0.000000965    0.000004787   -0.000008641
     40        7           0.000002523    0.000000762   -0.000005545
     41        7          -0.000000385   -0.000008394   -0.000007161
     42        7          -0.000000339   -0.000007895    0.000001025
     43        7           0.000002153    0.000005106   -0.000007951
     44        6           0.000010206    0.000004480   -0.000020387
     45        1           0.000000050   -0.000006419   -0.000005641
     46        6          -0.000001829   -0.000001663    0.000000411
     47        1           0.000002410    0.000002351    0.000007842
     48        1           0.000000926   -0.000010177    0.000001633
     49       21          -0.000007291   -0.000019366   -0.000000269
     50        1           0.000000081   -0.000003435    0.000000676
     51        6           0.000003446    0.000000608   -0.000001201
     52        6           0.000000599    0.000000330    0.000007622
     53        6           0.000000069    0.000005814   -0.000001009
     54        6           0.000000050    0.000004011    0.000008863
     55        1           0.000000614   -0.000001780    0.000008146
     56        6          -0.000000012    0.000008253    0.000004032
     57        1          -0.000000288    0.000005896   -0.000002048
     58        6           0.000000467    0.000006574    0.000007383
     59        1           0.000000890    0.000003488    0.000012475
     60        1          -0.000000655    0.000010368    0.000001771
     61        1          -0.000000015    0.000009973    0.000009148
     62        6          -0.000000921   -0.000009669   -0.000001131
     63        1          -0.000000719   -0.000010720    0.000002693
     64        1          -0.000000331   -0.000011201   -0.000004483
     65        1           0.000001237   -0.000011302   -0.000001431
     66        6           0.000000528    0.000013479    0.000001924
     67        1          -0.000002249   -0.000000398    0.000004932
     68        1          -0.000000244    0.000001091    0.000006434
     69        1          -0.000000396    0.000008886    0.000001939
 -------------------------------------------------------------------
 Cartesian Forces:  Max     0.000020387 RMS     0.000005965
 IRC-IRC-IRC-IRC-IRC-IRC-IRC-IRC-IRC-IRC-IRC-IRC-IRC-IRC-IRC-IRC-IRC-IRC
          ******** Start new reaction path calculation ********
 Supplied step size of   0.1000 bohr.
    Integration on MW PES will use step size of   0.3145 sqrt(amu)*bohr.
 Point Number:   0          Path Number:   1
 Calculating another point on the path.
 IRC-IRC-IRC-IRC-IRC-IRC-IRC-IRC-IRC-IRC-IRC-IRC-IRC-IRC-IRC-IRC-IRC-IRC
 Symmetry turned off by external request.
 Stoichiometry    C23H18F9N4O11S3Sc
 Framework group  C1[X(C23H18F9N4O11S3Sc)]
 Deg. of freedom   201
 Full point group                 C1      NOp   1
                          Input orientation:                          
 ---------------------------------------------------------------------
 Center     Atomic      Atomic             Coordinates (Angstroms)
 Number     Number       Type             X           Y           Z
 ---------------------------------------------------------------------
      1          6           0       -1.932379   -0.095807    0.993249
      2          6           0       -1.530484    0.160800   -0.389532
      3          6           0       -0.870444   -0.275762    1.984847
      4          8           0        0.312915   -0.544424    1.662739
      5          8           0       -0.354642    0.024081   -0.797960
      6          8           0        3.297287   -0.955904    0.976358
      7          8           0        2.445538   -0.392320   -1.800247
      8          8           0        0.323671    2.065846    0.907465
      9         16           0        1.058772    2.970633   -0.014216
     10         16           0        3.827304    0.159918    1.823567
     11         16           0        2.177105   -1.868776   -1.779426
     12          8           0        1.914261    2.069451   -0.855394
     13          8           0        1.669644    4.159066    0.524534
     14          8           0        2.790343    1.225499    1.698198
     15          8           0        4.335140   -0.160555    3.129964
     16          8           0        1.425955   -2.096701   -0.516195
     17          8           0        1.660019   -2.464707   -2.986272
     18          6           0        3.858262   -2.643498   -1.511437
     19          6           0        5.236633    0.798105    0.827592
     20          6           0       -0.242633    3.571805   -1.187226
     21          9           0        3.812966   -3.440943   -0.463861
     22          9           0        4.769118   -1.708879   -1.325703
     23          9           0        4.169316   -3.346500   -2.584699
     24          9           0        4.794708    1.084752   -0.384401
     25          9           0        6.175009   -0.125831    0.754546
     26          9           0        5.723038    1.885464    1.393125
     27          9           0       -1.371894    3.742210   -0.515636
     28          9           0       -0.437610    2.687613   -2.147324
     29          9           0        0.133080    4.719547   -1.714823
     30          6           0       -4.673780    0.019253    1.177361
     31          6           0       -4.750780   -1.538581    1.255819
     32          6           0       -6.075386   -2.073967    0.876833
     33          6           0       -4.557324   -1.904120    2.680674
     34          6           0       -1.403036   -2.786225    0.156623
     35          6           0       -3.089410   -3.066903   -1.531975
     36          6           0       -1.727928   -3.209013   -1.090982
     37          1           0       -0.400942   -2.893236    0.569532
     38          1           0       -3.400477   -3.394740   -2.526097
     39          1           0       -0.988641   -3.673474   -1.745488
     40          7           0       -7.133357   -2.486358    0.658856
     41          7           0       -4.407145   -2.139810    3.803372
     42          7           0       -3.691018   -2.192604    0.465225
     43          7           0       -4.026299   -2.582309   -0.773351
     44          6           0       -2.409032   -2.124461    0.946143
     45          1           0       -2.338902   -2.192025    2.034811
     46          6           0       -3.231627    0.542127    1.503822
     47          1           0       -3.227105    1.604178    1.210810
     48          1           0       -3.172749    0.553101    2.597724
     49         21           0        1.534148    0.139549    0.126060
     50          1           0       -5.253623    0.343472    2.055973
     51          6           0       -5.381238    0.700228    0.010714
     52          6           0       -5.602843    2.078966    0.164713
     53          6           0       -5.826725    0.084446   -1.164823
     54          6           0       -6.225244    2.826022   -0.833849
     55          1           0       -5.284972    2.573440    1.087694
     56          6           0       -6.458595    0.830999   -2.164842
     57          1           0       -5.664485   -0.980587   -1.336594
     58          6           0       -6.655350    2.202226   -2.008536
     59          1           0       -6.383456    3.897073   -0.689455
     60          1           0       -6.791745    0.327976   -3.075259
     61          1           0       -7.145480    2.782204   -2.793505
     62          6           0       -1.159256   -0.227746    3.451462
     63          1           0       -1.335514    0.822938    3.736323
     64          1           0       -2.059019   -0.796467    3.730780
     65          1           0       -0.285014   -0.601859    3.995840
     66          6           0       -2.544832    0.573802   -1.400113
     67          1           0       -3.368612   -0.148427   -1.442558
     68          1           0       -2.991120    1.541111   -1.115764
     69          1           0       -2.069259    0.651817   -2.383471
 ---------------------------------------------------------------------
 Rotational constants (GHZ):           0.0868921           0.0385087           0.0338908
 Basis read from rwf:  (5D, 7F)
   847 basis functions,  1514 primitive gaussians,   904 cartesian basis functions
   211 alpha electrons      211 beta electrons
       nuclear repulsion energy      9974.3749023143 Hartrees.
 NAtoms=   69 NActive=   69 NUniq=   69 SFac= 1.00D+00 NAtFMM=   60 NAOKFM=T Big=T
 Integral buffers will be    131072 words long.
 Raffenetti 2 integral format.
 Two-electron integral symmetry is turned off.
 Force inversion solution in PCM.
 ------------------------------------------------------------------------------
 Polarizable Continuum Model (PCM)
 =================================
 Model                : PCM.
 Atomic radii         : SMD-Coulomb.
 Polarization charges : Total charges.
 Charge compensation  : None.
 Solution method      : Matrix inversion.
 Cavity type          : VdW (van der Waals Surface) (Alpha=1.000).
 Cavity algorithm     : GePol (No added spheres)
                        Default sphere list used, NSphG=   69.
                        Lebedev-Laikov grids with approx.  5.0 points / Ang**2.
                        Smoothing algorithm: York/Karplus (Gamma=1.0000).
                        Polarization charges: spherical gaussians, with
                                              point-specific exponents (IZeta= 3).
                        Self-potential: point-specific (ISelfS= 7).
                        Self-field    : sphere-specific E.n sum rule (ISelfD= 2).
 1st derivatives      : Analytical E(r).r(x)/FMM algorithm (CHGder, D1EAlg=3).
                        Cavity 1st derivative terms included.
 Solvent              : DiChloroEthane, Eps=  10.125000 Eps(inf)=   2.087447
 ------------------------------------------------------------------------------
 ------------------------------------------------------------------------------
 Atomic radii for non-electrostatic terms: SMD-CDS.
 ------------------------------------------------------------------------------
 Nuclear repulsion after PCM non-electrostatic terms =     9974.3788965606 Hartrees.
 One-electron integrals computed using PRISM.
 NBasis=   847 RedAO= T EigKep=  1.80D-04  NBF=   847
 NBsUse=   847 1.00D-06 EigRej= -1.00D+00 NBFU=   847
 Initial guess from the checkpoint file:  "ts-min.chk"
 B after Tr=    -0.209517   -0.012111    0.023473
         Rot=    1.000000   -0.000004    0.000001    0.000001 Ang=  -0.00 deg.
 ExpMin= 3.01D-02 ExpMax= 1.92D+05 ExpMxC= 1.85D+03 IAcc=3 IRadAn=         5 AccDes= 0.00D+00
 Harris functional with IExCor= 1009 and IRadAn=       5 diagonalized for initial guess.
 HarFok:  IExCor= 1009 AccDes= 0.00D+00 IRadAn=         5 IDoV= 1 UseB2=F ITyADJ=14
 ICtDFT=  3500011 ScaDFX=  1.000000  1.000000  1.000000  1.000000
 FoFCou: FMM=F IPFlag=           0 FMFlag=      100000 FMFlg1=        2001
         NFxFlg=           0 DoJE=T BraDBF=F KetDBF=T FulRan=T
         wScrn=  0.000000 ICntrl=       500 IOpCl=  0 I1Cent=   200000004 NGrid=           0
         NMat0=    1 NMatS0=      1 NMatT0=    0 NMatD0=    1 NMtDS0=    0 NMtDT0=    0
 Symmetry not used in FoFCou.
 Requested convergence on RMS density matrix=1.00D-08 within 128 cycles.
 Requested convergence on MAX density matrix=1.00D-06.
 Requested convergence on             energy=1.00D-06.
 No special actions if energy rises.
 Inv3:  Mode=1 IEnd=    69870828.
 Iteration    1 A*A^-1 deviation from unit magnitude is 6.00D-15 for   4813.
 Iteration    1 A*A^-1 deviation from orthogonality  is 2.95D-15 for   4810   4111.
 Iteration    1 A^-1*A deviation from unit magnitude is 6.11D-15 for   4813.
 Iteration    1 A^-1*A deviation from orthogonality  is 1.64D-15 for   3142   2748.
 Error on total polarization charges =  0.03395
 SCF Done:  E(RMN15) =  -4781.69749300     A.U. after   11 cycles
            NFock= 11  Conv=0.10D-07     -V/T= 2.0064
 SMD-CDS (non-electrostatic) energy       (kcal/mol) =       2.51
 (included in total energy above)
 DoSCS=F DFT=T ScalE2(SS,OS)=  1.000000  1.000000
 Range of M.O.s used for correlation:     1   847
 NBasis=   847 NAE=   211 NBE=   211 NFC=     0 NFV=     0
 NROrb=    847 NOA=   211 NOB=   211 NVA=   636 NVB=   636

 **** Warning!!: The largest alpha MO coefficient is  0.11517643D+02

 Symmetrizing basis deriv contribution to polar:
 IMax=3 JMax=2 DiffMx= 0.00D+00
 D1PCM: PCM CHGder 1st derivatives, ID1Alg=3 FixD1E=F DoIter=F DoCFld=F I1PDM=0.
 Calling FoFJK, ICntrl=      2147 FMM=T ISym2X=0 I1Cent= 0 IOpClX= 0 NMat=1 NMatS=1 NMatT=0.
 -------------------------------------------------------------------
 Center     Atomic                   Forces (Hartrees/Bohr)
 Number     Number              X              Y              Z
 -------------------------------------------------------------------
      1        6           0.001179949    0.004057138    0.000317502
      2        6           0.000195365    0.000735162    0.000486980
      3        6          -0.000112631    0.000738961   -0.000367193
      4        8           0.000283566   -0.000086306   -0.000182104
      5        8           0.000359488   -0.000261851   -0.000225569
      6        8           0.000113082   -0.000054897    0.000036342
      7        8           0.000061596   -0.000105103   -0.000085193
      8        8           0.000132213    0.000241383    0.000095883
      9       16           0.000084748   -0.000021154    0.000021993
     10       16          -0.000095151   -0.000023925   -0.000041432
     11       16          -0.000024321    0.000022883    0.000004571
     12        8           0.000058921    0.000144105   -0.000049135
     13        8           0.000025118    0.000098992   -0.000064210
     14        8           0.000126987    0.000077883    0.000090611
     15        8           0.000044670   -0.000009447   -0.000006372
     16        8           0.000018466   -0.000322050   -0.000091557
     17        8          -0.000004671   -0.000054488   -0.000032598
     18        6          -0.000026268    0.000022309   -0.000019120
     19        6          -0.000034197   -0.000018776    0.000018481
     20        6           0.000029645   -0.000027857    0.000035314
     21        9           0.000021936   -0.000022472   -0.000024216
     22        9           0.000017670   -0.000019303   -0.000016816
     23        9           0.000023762   -0.000010431   -0.000019245
     24        9           0.000038577    0.000007255   -0.000001622
     25        9           0.000020209   -0.000002058   -0.000004292
     26        9           0.000012510   -0.000005304    0.000004115
     27        9          -0.000010367    0.000004229   -0.000002492
     28        9          -0.000005711    0.000041255   -0.000015068
     29        9          -0.000015735    0.000019470   -0.000000251
     30        6           0.000207502   -0.000042405   -0.000136066
     31        6          -0.000058838   -0.000057946    0.000103908
     32        6           0.000002206   -0.000044137    0.000004887
     33        6           0.000064851    0.000042053    0.000083470
     34        6          -0.000248695   -0.000677872    0.000268264
     35        6           0.000260769   -0.000215963   -0.000083284
     36        6          -0.000070616    0.000139829   -0.000525311
     37        1          -0.000019771    0.000011742    0.000011365
     38        1           0.000007414    0.000016051   -0.000019103
     39        1           0.000004041    0.000148294   -0.000082046
     40        7          -0.000005431    0.000000363   -0.000019672
     41        7          -0.000024133    0.000001774   -0.000034881
     42        7           0.000043274   -0.000505046   -0.000366545
     43        7          -0.000018808    0.000081715    0.000128757
     44        6          -0.000972912   -0.004768511    0.000564667
     45        1          -0.000055884    0.000178936   -0.000344820
     46        6          -0.000055125    0.000816083    0.000117224
     47        1          -0.000146967    0.000030748    0.000076472
     48        1          -0.000018462    0.000029365    0.000016659
     49       21          -0.001386831   -0.000146393    0.000393711
     50        1           0.000000041   -0.000031487   -0.000008603
     51        6           0.000007464   -0.000054552   -0.000038799
     52        6          -0.000033986   -0.000053781    0.000027324
     53        6          -0.000036637    0.000001902   -0.000032572
     54        6          -0.000012125   -0.000030067    0.000031140
     55        1          -0.000009415   -0.000005980    0.000009774
     56        6          -0.000025313    0.000016534   -0.000015265
     57        1          -0.000011637    0.000005860   -0.000010703
     58        6           0.000003186    0.000013117    0.000004242
     59        1           0.000000346    0.000000379    0.000017009
     60        1          -0.000003684    0.000012033   -0.000000666
     61        1           0.000002842    0.000012264    0.000009046
     62        6          -0.000038651   -0.000086356   -0.000130960
     63        1           0.000020631   -0.000041259    0.000054420
     64        1           0.000024975   -0.000005579    0.000003211
     65        1          -0.000000580   -0.000054972   -0.000044204
     66        6           0.000077143    0.000096433    0.000123899
     67        1           0.000003081   -0.000006083   -0.000006913
     68        1          -0.000013159    0.000007444   -0.000028302
     69        1           0.000018472   -0.000000133    0.000015964
 -------------------------------------------------------------------
 Cartesian Forces:  Max     0.004768511 RMS     0.000485529
 IRC-IRC-IRC-IRC-IRC-IRC-IRC-IRC-IRC-IRC-IRC-IRC-IRC-IRC-IRC-IRC-IRC-IRC
 Pt  1 Step number   1 out of a maximum of 500
 Modified Bulirsch-Stoer Extrapolation Cycles:
    EPS =    0.000010000000000
      PEZero:  N= 2 I= 1 D=  8.19D-04 Err=  1.66D-03
      PEZero:  N= 3 I= 2 D=  8.19D-04 Err=  1.11D-03
      PEZero:  N= 3 I= 1 D=  1.64D-03 Err=  4.24D-06
 Maximum DWI energy   std dev =  0.000001165 at pt     2
 Maximum DWI gradient std dev =  0.110503501 at pt     2
 Point Number:   1          Path Number:   1
   CHANGE IN THE REACTION COORDINATE =    0.31441
   NET REACTION COORDINATE UP TO THIS POINT =    0.31441
  # OF POINTS ALONG THE PATH =   1
  # OF STEPS =   1

 Calculating another point on the path.
 IRC-IRC-IRC-IRC-IRC-IRC-IRC-IRC-IRC-IRC-IRC-IRC-IRC-IRC-IRC-IRC-IRC-IRC
 Symmetry turned off by external request.
 Stoichiometry    C23H18F9N4O11S3Sc
 Framework group  C1[X(C23H18F9N4O11S3Sc)]
 Deg. of freedom   201
 Full point group                 C1      NOp   1
                          Input orientation:                          
 ---------------------------------------------------------------------
 Center     Atomic      Atomic             Coordinates (Angstroms)
 Number     Number       Type             X           Y           Z
 ---------------------------------------------------------------------
      1          6           0       -1.923663   -0.067100    0.995275
      2          6           0       -1.529234    0.165757   -0.385574
      3          6           0       -0.871683   -0.270595    1.981849
      4          8           0        0.314412   -0.544833    1.661853
      5          8           0       -0.352765    0.022762   -0.799215
      6          8           0        3.297877   -0.956193    0.976546
      7          8           0        2.445866   -0.392854   -1.800699
      8          8           0        0.324341    2.067090    0.908015
      9         16           0        1.059029    2.970614   -0.014158
     10         16           0        3.827060    0.159851    1.823471
     11         16           0        2.177031   -1.868735   -1.779426
     12          8           0        1.914579    2.070193   -0.855666
     13          8           0        1.669772    4.159582    0.524171
     14          8           0        2.791005    1.225909    1.698672
     15          8           0        4.335371   -0.160604    3.129918
     16          8           0        1.426057   -2.098367   -0.516669
     17          8           0        1.660001   -2.464996   -2.986434
     18          6           0        3.858071   -2.643359   -1.511546
     19          6           0        5.236398    0.797970    0.827719
     20          6           0       -0.242430    3.571613   -1.186983
     21          9           0        3.813062   -3.441039   -0.463977
     22          9           0        4.769206   -1.708957   -1.325777
     23          9           0        4.169427   -3.346548   -2.584798
     24          9           0        4.794877    1.084785   -0.384408
     25          9           0        6.175099   -0.125843    0.754531
     26          9           0        5.723095    1.885441    1.393151
     27          9           0       -1.371938    3.742223   -0.515642
     28          9           0       -0.437628    2.687791   -2.147401
     29          9           0        0.133008    4.719637   -1.714816
     30          6           0       -4.672409    0.018794    1.176281
     31          6           0       -4.751189   -1.539042    1.256704
     32          6           0       -6.075368   -2.074246    0.876880
     33          6           0       -4.556705   -1.903858    2.680713
     34          6           0       -1.404711   -2.791383    0.158137
     35          6           0       -3.087997   -3.068056   -1.532379
     36          6           0       -1.728326   -3.207978   -1.094585
     37          1           0       -0.401704   -2.892225    0.570467
     38          1           0       -3.399834   -3.393405   -2.527049
     39          1           0       -0.986598   -3.662053   -1.753717
     40          7           0       -7.133372   -2.486349    0.658728
     41          7           0       -4.407337   -2.139748    3.803399
     42          7           0       -3.690245   -2.195557    0.463703
     43          7           0       -4.026260   -2.582106   -0.773015
     44          6           0       -2.417031   -2.156972    0.947656
     45          1           0       -2.342639   -2.184497    2.037178
     46          6           0       -3.231815    0.547161    1.504930
     47          1           0       -3.239174    1.610405    1.215396
     48          1           0       -3.174473    0.556128    2.599040
     49         21           0        1.531582    0.139291    0.126791
     50          1           0       -5.253382    0.340842    2.055029
     51          6           0       -5.381203    0.699863    0.010419
     52          6           0       -5.603079    2.078574    0.164953
     53          6           0       -5.826983    0.084503   -1.165110
     54          6           0       -6.225330    2.825860   -0.833523
     55          1           0       -5.285790    2.572970    1.088149
     56          6           0       -6.458792    0.831229   -2.164967
     57          1           0       -5.665458   -0.980466   -1.337467
     58          6           0       -6.655324    2.202433   -2.008430
     59          1           0       -6.383546    3.896848   -0.688628
     60          1           0       -6.792043    0.328467   -3.075466
     61          1           0       -7.145305    2.782768   -2.793216
     62          6           0       -1.159313   -0.228468    3.450578
     63          1           0       -1.333991    0.820775    3.741107
     64          1           0       -2.058574   -0.797611    3.730661
     65          1           0       -0.284982   -0.606064    3.992522
     66          6           0       -2.544358    0.574503   -1.399336
     67          1           0       -3.367455   -0.148105   -1.443572
     68          1           0       -2.992343    1.541902   -1.117916
     69          1           0       -2.067741    0.651563   -2.382320
 ---------------------------------------------------------------------
 Rotational constants (GHZ):           0.0868536           0.0385089           0.0338855
 Basis read from rwf:  (5D, 7F)
   847 basis functions,  1514 primitive gaussians,   904 cartesian basis functions
   211 alpha electrons      211 beta electrons
       nuclear repulsion energy      9973.2167851739 Hartrees.
 NAtoms=   69 NActive=   69 NUniq=   69 SFac= 1.00D+00 NAtFMM=   60 NAOKFM=T Big=T
 Integral buffers will be    131072 words long.
 Raffenetti 2 integral format.
 Two-electron integral symmetry is turned off.
 Force inversion solution in PCM.
 ------------------------------------------------------------------------------
 Polarizable Continuum Model (PCM)
 =================================
 Model                : PCM.
 Atomic radii         : SMD-Coulomb.
 Polarization charges : Total charges.
 Charge compensation  : None.
 Solution method      : Matrix inversion.
 Cavity type          : VdW (van der Waals Surface) (Alpha=1.000).
 Cavity algorithm     : GePol (No added spheres)
                        Default sphere list used, NSphG=   69.
                        Lebedev-Laikov grids with approx.  5.0 points / Ang**2.
                        Smoothing algorithm: York/Karplus (Gamma=1.0000).
                        Polarization charges: spherical gaussians, with
                                              point-specific exponents (IZeta= 3).
                        Self-potential: point-specific (ISelfS= 7).
                        Self-field    : sphere-specific E.n sum rule (ISelfD= 2).
 1st derivatives      : Analytical E(r).r(x)/FMM algorithm (CHGder, D1EAlg=3).
                        Cavity 1st derivative terms included.
 Solvent              : DiChloroEthane, Eps=  10.125000 Eps(inf)=   2.087447
 ------------------------------------------------------------------------------
 ------------------------------------------------------------------------------
 Atomic radii for non-electrostatic terms: SMD-CDS.
 ------------------------------------------------------------------------------
 Nuclear repulsion after PCM non-electrostatic terms =     9973.2207696827 Hartrees.
 One-electron integrals computed using PRISM.
 NBasis=   847 RedAO= T EigKep=  1.80D-04  NBF=   847
 NBsUse=   847 1.00D-06 EigRej= -1.00D+00 NBFU=   847
 Initial guess from the checkpoint file:  "ts-min.chk"
 B after Tr=    -0.000015    0.000050   -0.000006
         Rot=    1.000000   -0.000017   -0.000000    0.000003 Ang=  -0.00 deg.
 ExpMin= 3.01D-02 ExpMax= 1.92D+05 ExpMxC= 1.85D+03 IAcc=3 IRadAn=         5 AccDes= 0.00D+00
 Harris functional with IExCor= 1009 and IRadAn=       5 diagonalized for initial guess.
 HarFok:  IExCor= 1009 AccDes= 0.00D+00 IRadAn=         5 IDoV= 1 UseB2=F ITyADJ=14
 ICtDFT=  3500011 ScaDFX=  1.000000  1.000000  1.000000  1.000000
 FoFCou: FMM=F IPFlag=           0 FMFlag=      100000 FMFlg1=        2001
         NFxFlg=           0 DoJE=T BraDBF=F KetDBF=T FulRan=T
         wScrn=  0.000000 ICntrl=       500 IOpCl=  0 I1Cent=   200000004 NGrid=           0
         NMat0=    1 NMatS0=      1 NMatT0=    0 NMatD0=    1 NMtDS0=    0 NMtDT0=    0
 Symmetry not used in FoFCou.
 Requested convergence on RMS density matrix=1.00D-08 within 128 cycles.
 Requested convergence on MAX density matrix=1.00D-06.
 Requested convergence on             energy=1.00D-06.
 No special actions if energy rises.
 Inv3:  Mode=1 IEnd=    69726123.
 Iteration    1 A*A^-1 deviation from unit magnitude is 5.44D-15 for   4811.
 Iteration    1 A*A^-1 deviation from orthogonality  is 4.50D-15 for   4810   4612.
 Iteration    1 A^-1*A deviation from unit magnitude is 6.33D-15 for   4811.
 Iteration    1 A^-1*A deviation from orthogonality  is 2.42D-15 for   4794   4162.
 Error on total polarization charges =  0.03386
 SCF Done:  E(RMN15) =  -4781.69837576     A.U. after   11 cycles
            NFock= 11  Conv=0.99D-08     -V/T= 2.0064
 SMD-CDS (non-electrostatic) energy       (kcal/mol) =       2.50
 (included in total energy above)
 DoSCS=F DFT=T ScalE2(SS,OS)=  1.000000  1.000000
 Range of M.O.s used for correlation:     1   847
 NBasis=   847 NAE=   211 NBE=   211 NFC=     0 NFV=     0
 NROrb=    847 NOA=   211 NOB=   211 NVA=   636 NVB=   636

 **** Warning!!: The largest alpha MO coefficient is  0.12166360D+02

 Symmetrizing basis deriv contribution to polar:
 IMax=3 JMax=2 DiffMx= 0.00D+00
 D1PCM: PCM CHGder 1st derivatives, ID1Alg=3 FixD1E=F DoIter=F DoCFld=F I1PDM=0.
 Calling FoFJK, ICntrl=      2147 FMM=T ISym2X=0 I1Cent= 0 IOpClX= 0 NMat=1 NMatS=1 NMatT=0.
 -------------------------------------------------------------------
 Center     Atomic                   Forces (Hartrees/Bohr)
 Number     Number              X              Y              Z
 -------------------------------------------------------------------
      1        6           0.002008761    0.007116263    0.000580207
      2        6           0.000468563    0.001493938    0.000784169
      3        6          -0.000066596    0.001456728   -0.000599203
      4        8           0.000437398   -0.000140622   -0.000338737
      5        8           0.000638005   -0.000487173   -0.000391809
      6        8           0.000220121   -0.000105440    0.000071749
      7        8           0.000125967   -0.000202455   -0.000158913
      8        8           0.000262884    0.000454732    0.000193407
      9       16           0.000209067   -0.000004301    0.000032432
     10       16          -0.000181791   -0.000044971   -0.000070243
     11       16          -0.000063409    0.000019857    0.000005656
     12        8           0.000120421    0.000281240   -0.000109347
     13        8           0.000039633    0.000191297   -0.000144503
     14        8           0.000246845    0.000163987    0.000174803
     15        8           0.000084502   -0.000007950   -0.000021161
     16        8           0.000025932   -0.000630260   -0.000165474
     17        8           0.000001025   -0.000105435   -0.000060508
     18        6          -0.000051743    0.000030842   -0.000019245
     19        6          -0.000063325   -0.000033452    0.000032023
     20        6           0.000052994   -0.000052567    0.000055528
     21        9           0.000044361   -0.000041990   -0.000038416
     22        9           0.000037570   -0.000035897   -0.000028870
     23        9           0.000049908   -0.000031230   -0.000032928
     24        9           0.000072211    0.000012794   -0.000008819
     25        9           0.000041032   -0.000001292   -0.000005108
     26        9           0.000024552   -0.000003961    0.000004703
     27        9          -0.000018528    0.000010820   -0.000011593
     28        9          -0.000012817    0.000068690   -0.000039275
     29        9          -0.000032568    0.000035581   -0.000013579
     30        6           0.000420256   -0.000087395   -0.000279300
     31        6          -0.000062172   -0.000119646    0.000189073
     32        6           0.000026674   -0.000072050    0.000020059
     33        6          -0.000070892    0.000084007    0.000171628
     34        6          -0.000424827   -0.001467373    0.000400918
     35        6           0.000433322   -0.000376123   -0.000194858
     36        6          -0.000086830    0.000271721   -0.001019901
     37        1          -0.000034623    0.000024285    0.000036366
     38        1           0.000018362    0.000021032   -0.000013607
     39        1          -0.000002449    0.000291539   -0.000129415
     40        7          -0.000012117   -0.000000677   -0.000036675
     41        7          -0.000061831    0.000026659   -0.000001867
     42        7          -0.000023503   -0.001116072   -0.000695162
     43        7          -0.000016541    0.000147466    0.000210053
     44        6          -0.001674687   -0.008316733    0.001429782
     45        1          -0.000019309    0.000207199   -0.000798373
     46        6          -0.000059752    0.001572377    0.000260139
     47        1          -0.000288526    0.000052360    0.000141454
     48        1          -0.000036785    0.000076575    0.000021517
     49       21          -0.002702203   -0.000245843    0.000758947
     50        1           0.000003018   -0.000043063   -0.000021871
     51        6           0.000010577   -0.000105079   -0.000081232
     52        6          -0.000071704   -0.000110200    0.000053200
     53        6          -0.000073169    0.000005597   -0.000075726
     54        6          -0.000026634   -0.000053615    0.000073450
     55        1          -0.000020525   -0.000009670   -0.000001866
     56        6          -0.000057165    0.000048208   -0.000038656
     57        1          -0.000019735   -0.000004103   -0.000015950
     58        6           0.000007679    0.000040016    0.000013921
     59        1          -0.000002843   -0.000008750    0.000003751
     60        1          -0.000005626   -0.000001425   -0.000005838
     61        1           0.000004098    0.000001229   -0.000004861
     62        6          -0.000061345   -0.000173715   -0.000253585
     63        1           0.000042243   -0.000050486    0.000096975
     64        1           0.000037855    0.000013985    0.000015354
     65        1          -0.000004292   -0.000077931   -0.000085658
     66        6           0.000166458    0.000177809    0.000239487
     67        1           0.000011725   -0.000017898   -0.000023358
     68        1          -0.000023599    0.000004039   -0.000063179
     69        1           0.000040438   -0.000016032    0.000027922
 -------------------------------------------------------------------
 Cartesian Forces:  Max     0.008316733 RMS     0.000865017
 IRC-IRC-IRC-IRC-IRC-IRC-IRC-IRC-IRC-IRC-IRC-IRC-IRC-IRC-IRC-IRC-IRC-IRC
 Pt  2 Step number   1 out of a maximum of 500
 Modified Bulirsch-Stoer Extrapolation Cycles:
    EPS =    0.000010000000000
      PEZero:  N= 2 I= 1 D=  1.64D-03 Err=  2.71D-05
      PEZero:  N= 3 I= 2 D=  1.64D-03 Err=  1.80D-05
      PEZero:  N= 3 I= 1 D=  3.27D-03 Err=  7.76D-08
 Maximum DWI energy   std dev =  0.000006187 at pt    37
 Maximum DWI gradient std dev =  0.088437790 at pt    27
 Point Number:   2          Path Number:   1
   CHANGE IN THE REACTION COORDINATE =    0.31430
[...]
 Alpha  occ. eigenvalues --   -1.28237  -1.28113  -1.28068  -1.27674  -1.27571
 Alpha  occ. eigenvalues --   -1.21196  -1.20367  -1.20113  -1.14136  -1.12336
 Alpha  occ. eigenvalues --   -1.10454  -1.08338  -1.07377  -1.07174  -1.05989
 Alpha  occ. eigenvalues --   -1.05332  -1.05254  -0.98905  -0.96592  -0.94651
 Alpha  occ. eigenvalues --   -0.90956  -0.90653  -0.87133  -0.84876  -0.81901
 Alpha  occ. eigenvalues --   -0.80884  -0.80700  -0.80171  -0.79685  -0.78885
 Alpha  occ. eigenvalues --   -0.78432  -0.76140  -0.73836  -0.72606  -0.72338
 Alpha  occ. eigenvalues --   -0.71954  -0.71578  -0.68371  -0.68179  -0.68118
 Alpha  occ. eigenvalues --   -0.68096  -0.67989  -0.67611  -0.67581  -0.65791
 Alpha  occ. eigenvalues --   -0.65247  -0.64070  -0.63698  -0.63171  -0.63086
 Alpha  occ. eigenvalues --   -0.62373  -0.61753  -0.61214  -0.59917  -0.58627
 Alpha  occ. eigenvalues --   -0.58270  -0.57805  -0.57095  -0.56612  -0.56398
 Alpha  occ. eigenvalues --   -0.56197  -0.55875  -0.55557  -0.55458  -0.55216
 Alpha  occ. eigenvalues --   -0.55111  -0.55074  -0.54836  -0.54389  -0.54246
 Alpha  occ. eigenvalues --   -0.54099  -0.53729  -0.53552  -0.53449  -0.52745
 Alpha  occ. eigenvalues --   -0.52671  -0.52296  -0.52166  -0.51964  -0.51912
 Alpha  occ. eigenvalues --   -0.51751  -0.51513  -0.51161  -0.50743  -0.50422
 Alpha  occ. eigenvalues --   -0.50153  -0.49462  -0.49448  -0.48880  -0.48581
 Alpha  occ. eigenvalues --   -0.48079  -0.47867  -0.47568  -0.46934  -0.46922
 Alpha  occ. eigenvalues --   -0.46081  -0.45950  -0.45859  -0.45485  -0.45025
 Alpha  occ. eigenvalues --   -0.44739  -0.44534  -0.44154  -0.44011  -0.43364
 Alpha  occ. eigenvalues --   -0.43127  -0.42860  -0.42498  -0.42289  -0.42194
 Alpha  occ. eigenvalues --   -0.41792  -0.41535  -0.41458  -0.41257  -0.40613
 Alpha  occ. eigenvalues --   -0.40384  -0.39926  -0.39763  -0.39724  -0.39644
 Alpha  occ. eigenvalues --   -0.39225  -0.38507  -0.38276  -0.38058  -0.37955
 Alpha  occ. eigenvalues --   -0.37795  -0.37446  -0.36996  -0.36635  -0.36276
 Alpha  occ. eigenvalues --   -0.35362  -0.34385  -0.33974  -0.29599  -0.29013
 Alpha  occ. eigenvalues --   -0.26755
 Alpha virt. eigenvalues --   -0.06021  -0.05980  -0.03993  -0.02140  -0.00970
 Alpha virt. eigenvalues --   -0.00499   0.00245   0.00523   0.00633   0.01425
 Alpha virt. eigenvalues --    0.01723   0.03969   0.04981   0.05853   0.06856
 Alpha virt. eigenvalues --    0.07746   0.08239   0.08462   0.08826   0.08873
 Alpha virt. eigenvalues --    0.09114   0.09347   0.09475   0.10027   0.10707
 Alpha virt. eigenvalues --    0.10914   0.11049   0.11288   0.11634   0.11912
 Alpha virt. eigenvalues --    0.12889   0.13370   0.13543   0.13761   0.14221
 Alpha virt. eigenvalues --    0.14829   0.15202   0.15611   0.15999   0.16367
 Alpha virt. eigenvalues --    0.16596   0.16785   0.17258   0.17599   0.18375
 Alpha virt. eigenvalues --    0.18653   0.18935   0.19225   0.19566   0.20196
 Alpha virt. eigenvalues --    0.20707   0.21058   0.21299   0.21978   0.22404
 Alpha virt. eigenvalues --    0.22714   0.22962   0.23156   0.23619   0.24042
 Alpha virt. eigenvalues --    0.24413   0.24563   0.24718   0.25342   0.25452
 Alpha virt. eigenvalues --    0.25965   0.26351   0.26994   0.27200   0.27552
 Alpha virt. eigenvalues --    0.27881   0.28172   0.28633   0.28895   0.29351
 Alpha virt. eigenvalues --    0.29763   0.30371   0.30802   0.31512   0.31951
 Alpha virt. eigenvalues --    0.32079   0.33064   0.33488   0.35146   0.35597
 Alpha virt. eigenvalues --    0.36713   0.36915   0.37974   0.38974   0.39188
 Alpha virt. eigenvalues --    0.39796   0.40594   0.40928   0.41541   0.42155
 Alpha virt. eigenvalues --    0.42521   0.43771   0.43876   0.44067   0.44602
 Alpha virt. eigenvalues --    0.44811   0.45140   0.45907   0.46653   0.46876
 Alpha virt. eigenvalues --    0.47246   0.47452   0.47795   0.48200   0.48388
 Alpha virt. eigenvalues --    0.48645   0.48946   0.49177   0.49699   0.50009
 Alpha virt. eigenvalues --    0.50550   0.51268   0.51441   0.51822   0.52344
 Alpha virt. eigenvalues --    0.52457   0.53122   0.53743   0.53937   0.54553
 Alpha virt. eigenvalues --    0.54767   0.55822   0.55866   0.56156   0.56563
 Alpha virt. eigenvalues --    0.56710   0.57520   0.57626   0.58088   0.58308
 Alpha virt. eigenvalues --    0.58844   0.59562   0.60220   0.60768   0.61410
 Alpha virt. eigenvalues --    0.61737   0.62103   0.62764   0.63635   0.64060
 Alpha virt. eigenvalues --    0.64379   0.64649   0.64813   0.65397   0.65803
 Alpha virt. eigenvalues --    0.65939   0.66293   0.66802   0.66932   0.67112
 Alpha virt. eigenvalues --    0.67436   0.67690   0.67793   0.68298   0.68404
 Alpha virt. eigenvalues --    0.68518   0.69097   0.69494   0.69683   0.69935
 Alpha virt. eigenvalues --    0.70409   0.70490   0.70778   0.71064   0.71643
 Alpha virt. eigenvalues --    0.71756   0.72201   0.72248   0.72522   0.73019
 Alpha virt. eigenvalues --    0.73104   0.73417   0.74041   0.74746   0.74949
 Alpha virt. eigenvalues --    0.75355   0.75780   0.76183   0.76276   0.77001
 Alpha virt. eigenvalues --    0.77648   0.78185   0.78280   0.78843   0.78965
 Alpha virt. eigenvalues --    0.80104   0.80421   0.81078   0.81881   0.82050
 Alpha virt. eigenvalues --    0.83188   0.84105   0.84600   0.84931   0.85478
 Alpha virt. eigenvalues --    0.86160   0.86675   0.86925   0.87240   0.87543
 Alpha virt. eigenvalues --    0.88374   0.88816   0.89199   0.89756   0.90555
 Alpha virt. eigenvalues --    0.91162   0.91466   0.92304   0.92723   0.93065
 Alpha virt. eigenvalues --    0.93504   0.94518   0.95032   0.95675   0.96080
 Alpha virt. eigenvalues --    0.96661   0.97252   0.97497   0.97604   0.98974
 Alpha virt. eigenvalues --    0.99345   0.99545   1.00251   1.00732   1.01231
 Alpha virt. eigenvalues --    1.01742   1.02971   1.03305   1.03566   1.04565
 Alpha virt. eigenvalues --    1.04891   1.05383   1.05721   1.05967   1.06375
 Alpha virt. eigenvalues --    1.06917   1.07726   1.08107   1.08580   1.08978
 Alpha virt. eigenvalues --    1.09658   1.10122   1.10592   1.10840   1.11622
 Alpha virt. eigenvalues --    1.12011   1.12477   1.12676   1.12818   1.12957
 Alpha virt. eigenvalues --    1.13610   1.14163   1.14768   1.14901   1.15313
 Alpha virt. eigenvalues --    1.15972   1.16838   1.17042   1.17337   1.18169
 Alpha virt. eigenvalues --    1.18574   1.18871   1.19185   1.19677   1.20007
 Alpha virt. eigenvalues --    1.20797   1.21072   1.21517   1.21962   1.22312
 Alpha virt. eigenvalues --    1.22786   1.23659   1.23786   1.24454   1.24643
 Alpha virt. eigenvalues --    1.25261   1.25935   1.26122   1.26759   1.26873
 Alpha virt. eigenvalues --    1.27364   1.27668   1.28250   1.28736   1.29151
 Alpha virt. eigenvalues --    1.30114   1.30754   1.30792   1.30929   1.31590
 Alpha virt. eigenvalues --    1.32022   1.32777   1.33393   1.33539   1.34031
 Alpha virt. eigenvalues --    1.34694   1.35215   1.35391   1.36058   1.36634
 Alpha virt. eigenvalues --    1.37081   1.38102   1.38561   1.39149   1.39630
 Alpha virt. eigenvalues --    1.40640   1.40930   1.41367   1.41977   1.42282
 Alpha virt. eigenvalues --    1.42690   1.43055   1.43762   1.43973   1.44868
 Alpha virt. eigenvalues --    1.45852   1.46117   1.46528   1.46638   1.47432
 Alpha virt. eigenvalues --    1.48667   1.48909   1.49613   1.50259   1.50789
 Alpha virt. eigenvalues --    1.51401   1.52033   1.52905   1.53211   1.54194
 Alpha virt. eigenvalues --    1.54937   1.55276   1.55819   1.56311   1.56772
 Alpha virt. eigenvalues --    1.57434   1.57802   1.58514   1.58667   1.59022
 Alpha virt. eigenvalues --    1.59036   1.59976   1.61180   1.61423   1.61579
 Alpha virt. eigenvalues --    1.62718   1.63264   1.63835   1.64482   1.64771
 Alpha virt. eigenvalues --    1.65476   1.66422   1.67029   1.67797   1.68572
 Alpha virt. eigenvalues --    1.68950   1.69231   1.69432   1.69600   1.70563
 Alpha virt. eigenvalues --    1.71092   1.71618   1.71918   1.71984   1.72865
 Alpha virt. eigenvalues --    1.73634   1.74137   1.74505   1.75278   1.75780
 Alpha virt. eigenvalues --    1.76102   1.76428   1.76654   1.77342   1.77623
 Alpha virt. eigenvalues --    1.78179   1.78592   1.79610   1.79868   1.80570
 Alpha virt. eigenvalues --    1.81063   1.81197   1.81657   1.83113   1.83615
 Alpha virt. eigenvalues --    1.84635   1.84843   1.85068   1.85569   1.85671
 Alpha virt. eigenvalues --    1.86052   1.86286   1.86382   1.86582   1.87700
 Alpha virt. eigenvalues --    1.88159   1.88656   1.88981   1.89387   1.89805
 Alpha virt. eigenvalues --    1.90442   1.91088   1.91488   1.91735   1.92287
 Alpha virt. eigenvalues --    1.92938   1.93089   1.93478   1.94490   1.94572
 Alpha virt. eigenvalues --    1.95432   1.96348   1.96757   1.96981   1.97320
 Alpha virt. eigenvalues --    1.97571   1.98253   1.98716   1.99158   1.99511
 Alpha virt. eigenvalues --    1.99826   2.00465   2.01218   2.01454   2.01954
 Alpha virt. eigenvalues --    2.02362   2.02744   2.03424   2.04017   2.04346
 Alpha virt. eigenvalues --    2.05212   2.05505   2.06733   2.07736   2.08563
 Alpha virt. eigenvalues --    2.08888   2.09599   2.10989   2.11730   2.12699
 Alpha virt. eigenvalues --    2.12964   2.13659   2.14320   2.15132   2.15833
 Alpha virt. eigenvalues --    2.16187   2.17094   2.18040   2.18860   2.18934
 Alpha virt. eigenvalues --    2.20465   2.21907   2.22493   2.23262   2.23955
 Alpha virt. eigenvalues --    2.24053   2.24379   2.25035   2.25921   2.27030
 Alpha virt. eigenvalues --    2.28578   2.29724   2.30224   2.30854   2.31691
 Alpha virt. eigenvalues --    2.33244   2.33968   2.35036   2.36349   2.36650
 Alpha virt. eigenvalues --    2.38166   2.39114   2.39744   2.40769   2.41961
 Alpha virt. eigenvalues --    2.42627   2.45166   2.45562   2.46005   2.47406
 Alpha virt. eigenvalues --    2.48096   2.48880   2.50850   2.52020   2.54615
 Alpha virt. eigenvalues --    2.55024   2.55355   2.56882   2.57569   2.57851
 Alpha virt. eigenvalues --    2.57983   2.59521   2.59648   2.60302   2.60590
 Alpha virt. eigenvalues --    2.61068   2.61348   2.61818   2.62113   2.62290
 Alpha virt. eigenvalues --    2.62979   2.63226   2.64216   2.64666   2.65323
 Alpha virt. eigenvalues --    2.66167   2.67672   2.68044   2.68494   2.69139
 Alpha virt. eigenvalues --    2.69392   2.69924   2.70355   2.71199   2.71283
 Alpha virt. eigenvalues --    2.71931   2.72313   2.73187   2.73663   2.74093
 Alpha virt. eigenvalues --    2.74854   2.75694   2.76858   2.78704   2.79568
 Alpha virt. eigenvalues --    2.79750   2.79871   2.80225   2.81204   2.81578
 Alpha virt. eigenvalues --    2.81700   2.82299   2.83072   2.83803   2.84255
 Alpha virt. eigenvalues --    2.84688   2.86597   2.87057   2.88388   2.89556
 Alpha virt. eigenvalues --    2.89818   2.90221   2.91159   2.91353   2.91911
 Alpha virt. eigenvalues --    2.92206   2.92495   2.93518   2.93983   2.94386
 Alpha virt. eigenvalues --    2.94905   2.95452   2.96040   2.96170   2.97774
 Alpha virt. eigenvalues --    2.97965   2.98357   2.98446   2.99279   2.99754
 Alpha virt. eigenvalues --    3.00409   3.01258   3.01773   3.02291   3.02385
 Alpha virt. eigenvalues --    3.02468   3.02606   3.02694   3.02752   3.02808
 Alpha virt. eigenvalues --    3.02938   3.03008   3.03062   3.03349   3.03468
 Alpha virt. eigenvalues --    3.03540   3.04138   3.04188   3.04519   3.05280
 Alpha virt. eigenvalues --    3.05509   3.06343   3.06693   3.07300   3.07717
 Alpha virt. eigenvalues --    3.10480   3.11272   3.14476   3.14804   3.15514
 Alpha virt. eigenvalues --    3.15746   3.15900   3.15965   3.16180   3.16742
 Alpha virt. eigenvalues --    3.20451   3.21445   3.22484   3.28538   3.30982
 Alpha virt. eigenvalues --    3.33742   3.34251   3.34943   3.35316   3.36781
 Alpha virt. eigenvalues --    3.36957   3.37036   3.38060   3.38353   3.38810
 Alpha virt. eigenvalues --    3.39345   3.42704   3.48535   3.51089   3.51653
 Alpha virt. eigenvalues --    3.52074   3.52691   3.52778   3.53336   3.54645
 Alpha virt. eigenvalues --    3.58685   3.60040   3.66700   3.67873   3.68515
 Alpha virt. eigenvalues --    3.81030   3.81251   3.82489   3.82826   3.83201
 Alpha virt. eigenvalues --    3.83950
          Condensed to atoms (all electrons):
 Mulliken charges:
               1
     1  C   -0.252179
     2  C    0.079362
     3  C    0.089757
     4  O   -0.222322
     5  O   -0.201781
     6  O   -0.436012
     7  O   -0.439331
     8  O   -0.443843
     9  S    0.894698
    10  S    0.864227
    11  S    0.869482
    12  O   -0.442789
    13  O   -0.394074
    14  O   -0.429934
    15  O   -0.383435
    16  O   -0.434196
    17  O   -0.398969
    18  C    0.445564
    19  C    0.447187
    20  C    0.424469
    21  F   -0.115647
    22  F   -0.112729
    23  F   -0.122279
    24  F   -0.102006
    25  F   -0.117856
    26  F   -0.117949
    27  F   -0.128047
    28  F   -0.112998
    29  F   -0.117425
    30  C    0.105173
    31  C   -0.143357
    32  C   -0.183935
    33  C   -0.166454
    34  C    0.017880
    35  C    0.006250
    36  C    0.023575
    37  H    0.062712
    38  H    0.051778
    39  H    0.033072
    40  N    0.148301
    41  N    0.110476
    42  N   -0.175387
    43  N   -0.015305
    44  C    0.142999
    45  H    0.070105
    46  C    0.157017
    47  H    0.048704
    48  H    0.036511
    49  Sc   0.301559
    50  H    0.072841
    51  C   -0.035156
    52  C   -0.028178
    53  C    0.020735
    54  C    0.006380
    55  H    0.008756
    56  C    0.001339
    57  H   -0.003264
    58  C    0.008573
    59  H    0.011808
    60  H    0.008647
    61  H    0.013247
    62  C    0.121353
    63  H    0.104766
    64  H    0.057499
    65  H    0.073526
    66  C    0.175190
    67  H    0.022031
    68  H    0.067910
    69  H    0.071383
 Sum of Mulliken charges =  -0.00000
 Mulliken charges with hydrogens summed into heavy atoms:
               1
     1  C   -0.252179
     2  C    0.079362
     3  C    0.089757
     4  O   -0.222322
     5  O   -0.201781
     6  O   -0.436012
     7  O   -0.439331
     8  O   -0.443843
     9  S    0.894698
    10  S    0.864227
    11  S    0.869482
    12  O   -0.442789
    13  O   -0.394074
    14  O   -0.429934
    15  O   -0.383435
    16  O   -0.434196
    17  O   -0.398969
    18  C    0.445564
    19  C    0.447187
    20  C    0.424469
    21  F   -0.115647
    22  F   -0.112729
    23  F   -0.122279
    24  F   -0.102006
    25  F   -0.117856
    26  F   -0.117949
    27  F   -0.128047
    28  F   -0.112998
    29  F   -0.117425
    30  C    0.178014
    31  C   -0.143357
    32  C   -0.183935
    33  C   -0.166454
    34  C    0.080591
    35  C    0.058029
    36  C    0.056647
    40  N    0.148301
    41  N    0.110476
    42  N   -0.175387
    43  N   -0.015305
    44  C    0.213104
    46  C    0.242232
    49  Sc   0.301559
    51  C   -0.035156
    52  C   -0.019423
    53  C    0.017471
    54  C    0.018188
    56  C    0.009986
    58  C    0.021820
    62  C    0.357144
    66  C    0.336514
 APT charges:
               1
     1  C   -0.138372
     2  C   -0.263387
     3  C   -0.412503
     4  O   -0.387390
     5  O   -0.401775
     6  O   -0.606982
     7  O   -0.387457
     8  O   -0.689665
     9  S    0.014614
    10  S   -0.111706
    11  S    0.058509
    12  O   -0.432962
    13  O    0.704664
    14  O   -0.663750
    15  O    0.784069
    16  O   -0.595716
    17  O    0.329833
    18  C   -0.704239
    19  C   -0.656921
    20  C   -0.528439
    21  F    0.110130
    22  F    0.167123
    23  F    0.735681
    24  F   -0.279635
    25  F    0.629788
    26  F    0.611917
    27  F    0.066949
    28  F   -0.179182
    29  F    0.742933
    30  C   -0.318249
    31  C   -1.539710
    32  C   -3.260289
    33  C   -1.599242
    34  C   -0.670486
    35  C   -0.976541
    36  C   -0.022791
    37  H    0.074630
    38  H    0.889660
    39  H    0.427746
    40  N    4.443127
    41  N    1.939149
    42  N   -0.093941
    43  N    0.297381
    44  C   -0.386566
    45  H    0.442118
    46  C   -0.654737
    47  H    0.169503
    48  H    0.503281
    49  Sc   0.337841
    50  H    0.828832
    51  C   -0.914971
    52  C   -0.426462
    53  C   -0.341492
    54  C   -0.484531
    55  H    0.139369
    56  C   -0.474771
    57  H    0.116962
    58  C   -0.613177
    59  H    0.888679
    60  H    0.846772
    61  H    1.262425
    62  C   -0.464538
    63  H    0.394845
    64  H    0.538862
    65  H    0.430083
    66  C   -0.371959
    67  H    0.435211
    68  H    0.405697
    69  H    0.286149
 Sum of APT charges =  -0.00000
 APT charges with hydrogens summed into heavy atoms:
               1
     1  C   -0.138372
     2  C   -0.263387
     3  C   -0.412503
     4  O   -0.387390
     5  O   -0.401775
     6  O   -0.606982
     7  O   -0.387457
     8  O   -0.689665
     9  S    0.014614
    10  S   -0.111706
    11  S    0.058509
    12  O   -0.432962
    13  O    0.704664
    14  O   -0.663750
    15  O    0.784069
    16  O   -0.595716
    17  O    0.329833
    18  C   -0.704239
    19  C   -0.656921
    20  C   -0.528439
    21  F    0.110130
    22  F    0.167123
    23  F    0.735681
    24  F   -0.279635
    25  F    0.629788
    26  F    0.611917
    27  F    0.066949
    28  F   -0.179182
    29  F    0.742933
    30  C    0.510583
    31  C   -1.539710
    32  C   -3.260289
    33  C   -1.599242
    34  C   -0.595856
    35  C   -0.086882
    36  C    0.404956
    40  N    4.443127
    41  N    1.939149
    42  N   -0.093941
    43  N    0.297381
    44  C    0.055553
    46  C    0.018047
    49  Sc   0.337841
    51  C   -0.914971
    52  C   -0.287093
    53  C   -0.224530
    54  C    0.404148
    56  C    0.372001
    58  C    0.649248
    62  C    0.899252
    66  C    0.755098
 Electronic spatial extent (au):  <R**2>=          31331.5434
 Charge=             -0.0000 electrons
 Dipole moment (field-independent basis, Debye):
    X=            -11.3770    Y=              0.4937    Z=              0.5378  Tot=             11.4004
 Quadrupole moment (field-independent basis, Debye-Ang):
   XX=           -349.9759   YY=           -330.7021   ZZ=           -322.5477
   XY=            -34.4838   XZ=              1.2556   YZ=              1.9831
 Traceless Quadrupole moment (field-independent basis, Debye-Ang):
   XX=            -15.5674   YY=              3.7065   ZZ=             11.8609
   XY=            -34.4838   XZ=              1.2556   YZ=              1.9831
 Octapole moment (field-independent basis, Debye-Ang**2):
  XXX=            652.4673  YYY=             19.8130  ZZZ=            -87.0429  XYY=             96.7048
  XXY=            231.0823  XXZ=           -139.2624  XZZ=             48.0036  YZZ=             61.0755
  YYZ=            -61.4750  XYZ=            -41.8515
 Hexadecapole moment (field-independent basis, Debye-Ang**3):
 XXXX=         -28617.9482 YYYY=          -8507.2523 ZZZZ=          -5175.1424 XXXY=          -1723.0277
 XXXZ=            376.3825 YYYX=           -630.5949 YYYZ=             45.3285 ZZZX=            237.9233
 ZZZY=            152.0565 XXYY=          -5956.0174 XXZZ=          -5226.7368 YYZZ=          -2266.9022
 XXYZ=            165.3247 YYXZ=            147.8318 ZZXY=           -185.1500
 N-N= 9.985006843245D+03 E-N=-3.123963535082D+04  KE= 4.751159888615D+03
  Exact polarizability:   0.000   0.000   0.000   0.000   0.000   0.000
 Approx polarizability: 470.936  -4.238 456.260  35.674  28.260 498.193

 This type of calculation cannot be archived.


 At the touch of love, everyone becomves a poet.
                                -- Plato
 Job cpu time:      11 days 22 hours 14 minutes  3.5 seconds.
 Elapsed time:       0 days 12 hours  0 minutes 13.5 seconds.
 File lengths (MBytes):  RWF=   6200 Int=      0 D2E=      0 Chk=    124 Scr=      8
 Normal termination of Gaussian 16 at Tue Mar  4 09:32:53 2025.
