 Entering Gaussian System, Link 0=/sysapps/ubuntu-applications/gaussian-new/avx/g16//g16
 Input=mixed.in
 Output=mixed.log
 Initial command:
 /sysapps/ubuntu-applications/gaussian-new/avx/g16/l1.exe "/data/temp-scratch/selhajj1/7490270/Gau-485091.inp" -scrdir="/data/temp-scratch/selhajj1/7490270/"
 Entering Link 1 = /sysapps/ubuntu-applications/gaussian-new/avx/g16/l1.exe PID=    485093.
  
 Copyright (c) 1988,1990,1992,1993,1995,1998,2003,2009,2016,
            Gaussian, Inc.  All Rights Reserved.
  
 This is part of the Gaussian(R) 16 program.  It is based on
 the Gaussian(R) 09 system (copyright 2009, Gaussian, Inc.),
 the Gaussian(R) 03 system (copyright 2003, Gaussian, Inc.),
 the Gaussian(R) 98 system (copyright 1998, Gaussian, Inc.),
 the Gaussian(R) 94 system (copyright 1995, Gaussian, Inc.),
 the Gaussian 92(TM) system (copyright 1992, Gaussian, Inc.),
 the Gaussian 90(TM) system (copyright 1990, Gaussian, Inc.),
 the Gaussian 88(TM) system (copyright 1988, Gaussian, Inc.),
 the Gaussian 86(TM) system (copyright 1986, Carnegie Mellon
 University), and the Gaussian 82(TM) system (copyright 1983,
 Carnegie Mellon University). Gaussian is a federally registered
 trademark of Gaussian, Inc.
  
 This software contains proprietary and confidential information,
 including trade secrets, belonging to Gaussian, Inc.
  
 This software is provided under written license and may be
 used, copied, transmitted, or stored only in accord with that
 written license.
  
 The following legend is applicable only to US Government
 contracts under FAR:
  
                    RESTRICTED RIGHTS LEGEND
  
 Use, reproduction and disclosure by the US Government is
 subject to restrictions as set forth in subparagraphs (a)
 and (c) of the Commercial Computer Software - Restricted
 Rights clause in FAR 52.227-19.
  
 Gaussian, Inc.
 340 Quinnipiac St., Bldg. 40, Wallingford CT 06492
  
  
 ---------------------------------------------------------------
 Warning -- This program may not be used in any manner that
 competes with the business of Gaussian, Inc. or will provide
 assistance to any competitor of Gaussian, Inc.  The licensee
 of this program is prohibited from giving any competitor of
 Gaussian, Inc. access to this program.  By using this program,
 the user acknowledges that Gaussian, Inc. is engaged in the
 business of creating and licensing software in the field of
 computational chemistry and represents and warrants to the
 licensee that it is not a competitor of Gaussian, Inc. and that
 it will not use this program in any manner prohibited above.
 ---------------------------------------------------------------
  

 Cite this work as:
 Gaussian 16, Revision A.03,
 M. J. Frisch, G. W. Trucks, H. B. Schlegel, G. E. Scuseria, 
 M. A. Robb, J. R. Cheeseman, G. Scalmani, V. Barone, 
 G. A. Petersson, H. Nakatsuji, X. Li, M. Caricato, A. V. Marenich, 
 J. Bloino, B. G. Janesko, R. Gomperts, B. Mennucci, H. P. Hratchian, 
 J. V. Ortiz, A. F. Izmaylov, J. L. Sonnenberg, D. Williams-Young, 
 F. Ding, F. Lipparini, F. Egidi, J. Goings, B. Peng, A. Petrone, 
 T. Henderson, D. Ranasinghe, V. G. Zakrzewski, J. Gao, N. Rega, 
 G. Zheng, W. Liang, M. Hada, M. Ehara, K. Toyota, R. Fukuda, 
 J. Hasegawa, M. Ishida, T. Nakajima, Y. Honda, O. Kitao, H. Nakai, 
 T. Vreven, K. Throssell, J. A. Montgomery, Jr., J. E. Peralta, 
 F. Ogliaro, M. J. Bearpark, J. J. Heyd, E. N. Brothers, K. N. Kudin, 
 V. N. Staroverov, T. A. Keith, R. Kobayashi, J. Normand, 
 K. Raghavachari, A. P. Rendell, J. C. Burant, S. S. Iyengar, 
 J. Tomasi, M. Cossi, J. M. Millam, M. Klene, C. Adamo, R. Cammi, 
 J. W. Ochterski, R. L. Martin, K. Morokuma, O. Farkas, 
 J. B. Foresman, and D. J. Fox, Gaussian, Inc., Wallingford CT, 2016.
 
 ******************************************
 Gaussian 16:  ES64L-G16RevA.03 25-Dec-2016
                28-Jan-2025 
 ******************************************
 %chk=mixed.chk
 %mem=616Gb
 %nprocshared=24
 Will use up to   24 processors via shared memory.
 -------------------------------------------------------------------
 #P MN15/gen scf=(maxcyc=500) freq scrf=(smd,solvent=DiChloroEthane)
 -------------------------------------------------------------------
 1/10=4,30=1,38=1/1,3;
 2/12=2,17=6,18=5,40=1/2;
 3/5=7,11=2,25=1,30=1,70=32201,71=2,72=10,74=-73,140=1/1,2,3;
 4//1;
 5/5=2,7=500,38=5,53=10,98=1/2;
 8/6=4,10=90,11=11/1;
 11/6=1,8=1,9=11,15=111,16=1/1,2,10;
 10/6=1/2;
 6/7=2,8=2,9=2,10=2,28=1/1;
 7/8=1,10=1,25=1/1,2,3,16;
 1/10=4,30=1/3;
 99//99;
 Leave Link    1 at Tue Jan 28 15:59:48 2025, MaxMem= 82678120448 cpu:              27.3 elap:               1.2
 (Enter /sysapps/ubuntu-applications/gaussian-new/avx/g16/l101.exe)
 ---
 Opt
 ---
 Symbolic Z-matrix:
 Charge =  0 Multiplicity = 1
 C                    -4.15915  -0.60596  -0.78699 
 C                    -4.74498  -0.75807  -2.0518 
 C                    -5.40872   0.31135  -2.65596 
 C                    -5.50142   1.54222  -2.00167 
 C                    -4.93654   1.69709  -0.73298 
 C                    -4.27409   0.62892  -0.12962 
 C                    -3.44408  -1.71491  -0.0883 
 C                    -1.96242  -2.10839  -0.47613 
 C                    -3.15021  -3.03048  -0.67385 
 C                    -1.06768  -2.33414   0.67349 
 C                    -1.34845  -1.41435  -1.63163 
 H                    -4.68986  -1.71784  -2.56945 
 H                    -5.86215   0.17869  -3.64084 
 H                    -6.02106   2.37743  -2.47666 
 H                    -5.01217   2.65231  -0.20869 
 H                    -3.83678   0.74609   0.86351 
 H                    -3.53553  -1.67925   1.00217 
 O                    -0.34132  -0.70836  -1.56077 
 O                     0.05054  -1.81229   0.7973 
 Sc                    0.85245   0.06094   0.09051 
 O                    -1.54389  -3.11776   1.5942 
 O                    -1.97845  -1.5893   -2.75832 
 C                    -0.77711  -3.25973   2.80265 
 C                    -1.5546   -0.81568  -3.88945 
 H                    -1.37693  -3.88461   3.47047 
 H                    -0.60579  -2.26791   3.24149 
 H                     0.18405  -3.73859   2.57753 
 H                    -2.24648  -1.05992  -4.70132 
 H                    -0.52678  -1.08596  -4.16389 
 H                    -1.60399   0.2542   -3.64667 
 O                     1.8379    1.95763   0.6408 
 O                     0.29468   0.41013   2.37623 
 O                     2.36996  -0.92325  -1.14279 
 S                     3.24112  -1.38674  -0.00887 
 S                     1.63059   2.66283  -0.667 
 S                    -1.11148   0.71903   2.03356 
 O                     2.60331  -0.77232   1.19372 
 O                     4.66569  -1.2762   -0.16319 
 O                     0.91504   1.64867  -1.49961 
 O                     1.12743   4.00971  -0.64148 
 O                    -1.14714   0.80489   0.52975 
 O                    -2.15356  -0.08434   2.63844 
 C                    -1.41009   2.45825   2.55239 
 C                     3.32225   2.75096  -1.39245 
 C                     2.86319  -3.2114    0.13337 
 F                    -2.65402   2.78213   2.24832 
 F                    -0.57348   3.2473    1.91073 
 F                    -1.22439   2.5619    3.85225 
 F                     3.92296   1.58393  -1.24814 
 F                     4.00969   3.68515  -0.76676 
 F                     3.2258    3.04642  -2.67379 
 F                     2.58374  -3.49944   1.38939 
 F                     3.91964  -3.89364  -0.25648 
 F                     1.83217  -3.51992  -0.63038 
 H                    -3.17251  -3.90399  -0.02077 
 H                    -3.41504  -3.2082   -1.71763 
 
 ITRead=  0  0  0  0  0  0  0  0  0  0  0  0  0  0  0  0  0  0  0  0
 ITRead=  0  0  0  0  0  0  0  0  0  0  0  0  0  0  0  0  0  0  0  0
 ITRead=  0  0  0  0  0  0  0  0  0  0  0  0  0  0  0  0
 MicOpt= -1 -1 -1 -1 -1 -1 -1 -1 -1 -1 -1 -1 -1 -1 -1 -1 -1 -1 -1 -1
 MicOpt= -1 -1 -1 -1 -1 -1 -1 -1 -1 -1 -1 -1 -1 -1 -1 -1 -1 -1 -1 -1
 MicOpt= -1 -1 -1 -1 -1 -1 -1 -1 -1 -1 -1 -1 -1 -1 -1 -1
 NAtoms=     56 NQM=       56 NQMF=       0 NMMI=      0 NMMIF=      0
                NMic=       0 NMicF=      0.
                    Isotopes and Nuclear Properties:
 (Nuclear quadrupole moments (NQMom) in fm**2, nuclear magnetic moments (NMagM)
  in nuclear magnetons)

  Atom         1           2           3           4           5           6           7           8           9          10
 IAtWgt=          12          12          12          12          12          12          12          12          12          12
 AtmWgt=  12.0000000  12.0000000  12.0000000  12.0000000  12.0000000  12.0000000  12.0000000  12.0000000  12.0000000  12.0000000
 NucSpn=           0           0           0           0           0           0           0           0           0           0
 AtZEff=  -0.0000000  -0.0000000  -0.0000000  -0.0000000  -0.0000000  -0.0000000  -0.0000000  -0.0000000  -0.0000000  -0.0000000
 NQMom=    0.0000000   0.0000000   0.0000000   0.0000000   0.0000000   0.0000000   0.0000000   0.0000000   0.0000000   0.0000000
 NMagM=    0.0000000   0.0000000   0.0000000   0.0000000   0.0000000   0.0000000   0.0000000   0.0000000   0.0000000   0.0000000
 AtZNuc=   6.0000000   6.0000000   6.0000000   6.0000000   6.0000000   6.0000000   6.0000000   6.0000000   6.0000000   6.0000000

  Atom        11          12          13          14          15          16          17          18          19          20
 IAtWgt=          12           1           1           1           1           1           1          16          16          45
 AtmWgt=  12.0000000   1.0078250   1.0078250   1.0078250   1.0078250   1.0078250   1.0078250  15.9949146  15.9949146  44.9559136
 NucSpn=           0           1           1           1           1           1           1           0           0           7
 AtZEff=  -0.0000000  -0.0000000  -0.0000000  -0.0000000  -0.0000000  -0.0000000  -0.0000000  -0.0000000  -0.0000000  -0.0000000
 NQMom=    0.0000000   0.0000000   0.0000000   0.0000000   0.0000000   0.0000000   0.0000000   0.0000000   0.0000000 -22.0000000
 NMagM=    0.0000000   2.7928460   2.7928460   2.7928460   2.7928460   2.7928460   2.7928460   0.0000000   0.0000000   4.7564830
 AtZNuc=   6.0000000   1.0000000   1.0000000   1.0000000   1.0000000   1.0000000   1.0000000   8.0000000   8.0000000  21.0000000

  Atom        21          22          23          24          25          26          27          28          29          30
 IAtWgt=          16          16          12          12           1           1           1           1           1           1
 AtmWgt=  15.9949146  15.9949146  12.0000000  12.0000000   1.0078250   1.0078250   1.0078250   1.0078250   1.0078250   1.0078250
 NucSpn=           0           0           0           0           1           1           1           1           1           1
 AtZEff=  -0.0000000  -0.0000000  -0.0000000  -0.0000000  -0.0000000  -0.0000000  -0.0000000  -0.0000000  -0.0000000  -0.0000000
 NQMom=    0.0000000   0.0000000   0.0000000   0.0000000   0.0000000   0.0000000   0.0000000   0.0000000   0.0000000   0.0000000
 NMagM=    0.0000000   0.0000000   0.0000000   0.0000000   2.7928460   2.7928460   2.7928460   2.7928460   2.7928460   2.7928460
 AtZNuc=   8.0000000   8.0000000   6.0000000   6.0000000   1.0000000   1.0000000   1.0000000   1.0000000   1.0000000   1.0000000

  Atom        31          32          33          34          35          36          37          38          39          40
 IAtWgt=          16          16          16          32          32          32          16          16          16          16
 AtmWgt=  15.9949146  15.9949146  15.9949146  31.9720718  31.9720718  31.9720718  15.9949146  15.9949146  15.9949146  15.9949146
 NucSpn=           0           0           0           0           0           0           0           0           0           0
 AtZEff=  -0.0000000  -0.0000000  -0.0000000  -0.0000000  -0.0000000  -0.0000000  -0.0000000  -0.0000000  -0.0000000  -0.0000000
 NQMom=    0.0000000   0.0000000   0.0000000   0.0000000   0.0000000   0.0000000   0.0000000   0.0000000   0.0000000   0.0000000
 NMagM=    0.0000000   0.0000000   0.0000000   0.0000000   0.0000000   0.0000000   0.0000000   0.0000000   0.0000000   0.0000000
 AtZNuc=   8.0000000   8.0000000   8.0000000  16.0000000  16.0000000  16.0000000   8.0000000   8.0000000   8.0000000   8.0000000

  Atom        41          42          43          44          45          46          47          48          49          50
 IAtWgt=          16          16          12          12          12          19          19          19          19          19
 AtmWgt=  15.9949146  15.9949146  12.0000000  12.0000000  12.0000000  18.9984032  18.9984032  18.9984032  18.9984032  18.9984032
 NucSpn=           0           0           0           0           0           1           1           1           1           1
 AtZEff=  -0.0000000  -0.0000000  -0.0000000  -0.0000000  -0.0000000  -0.0000000  -0.0000000  -0.0000000  -0.0000000  -0.0000000
 NQMom=    0.0000000   0.0000000   0.0000000   0.0000000   0.0000000   0.0000000   0.0000000   0.0000000   0.0000000   0.0000000
 NMagM=    0.0000000   0.0000000   0.0000000   0.0000000   0.0000000   2.6288670   2.6288670   2.6288670   2.6288670   2.6288670
 AtZNuc=   8.0000000   8.0000000   6.0000000   6.0000000   6.0000000   9.0000000   9.0000000   9.0000000   9.0000000   9.0000000

  Atom        51          52          53          54          55          56
 IAtWgt=          19          19          19          19           1           1
 AtmWgt=  18.9984032  18.9984032  18.9984032  18.9984032   1.0078250   1.0078250
 NucSpn=           1           1           1           1           1           1
 AtZEff=  -0.0000000  -0.0000000  -0.0000000  -0.0000000  -0.0000000  -0.0000000
 NQMom=    0.0000000   0.0000000   0.0000000   0.0000000   0.0000000   0.0000000
 NMagM=    2.6288670   2.6288670   2.6288670   2.6288670   2.7928460   2.7928460
 AtZNuc=   9.0000000   9.0000000   9.0000000   9.0000000   1.0000000   1.0000000
 Leave Link  101 at Tue Jan 28 15:59:48 2025, MaxMem= 82678120448 cpu:               5.2 elap:               0.3
 (Enter /sysapps/ubuntu-applications/gaussian-new/avx/g16/l103.exe)

 GradGradGradGradGradGradGradGradGradGradGradGradGradGradGradGradGradGrad
 Berny optimization.
 Initialization pass.
 Trust Radius=3.00D-01 FncErr=1.00D-07 GrdErr=1.00D-07 EigMax=2.50D+02 EigMin=1.00D-04
 Number of steps in this run=      2 maximum allowed number of steps=      2.
 GradGradGradGradGradGradGradGradGradGradGradGradGradGradGradGradGradGrad

 Leave Link  103 at Tue Jan 28 15:59:48 2025, MaxMem= 82678120448 cpu:               1.3 elap:               0.1
 (Enter /sysapps/ubuntu-applications/gaussian-new/avx/g16/l202.exe)
 Stoichiometry    C16H14F9O13S3Sc
 Framework group  C1[X(C16H14F9O13S3Sc)]
 Deg. of freedom   162
 Full point group                 C1      NOp   1
 Largest Abelian subgroup         C1      NOp   1
 Largest concise Abelian subgroup C1      NOp   1
                         Standard orientation:                         
 ---------------------------------------------------------------------
 Center     Atomic      Atomic             Coordinates (Angstroms)
 Number     Number       Type             X           Y           Z
 ---------------------------------------------------------------------
      1          6           0        4.159150    0.605964   -0.786990
      2          6           0        4.744976    0.758072   -2.051797
      3          6           0        5.408722   -0.311348   -2.655958
      4          6           0        5.501424   -1.542218   -2.001665
      5          6           0        4.936539   -1.697086   -0.732979
      6          6           0        4.274092   -0.628920   -0.129620
      7          6           0        3.444080    1.714909   -0.088301
      8          6           0        1.962415    2.108386   -0.476125
      9          6           0        3.150208    3.030476   -0.673853
     10          6           0        1.067676    2.334138    0.673487
     11          6           0        1.348451    1.414349   -1.631631
     12          1           0        4.689862    1.717841   -2.569454
     13          1           0        5.862147   -0.178693   -3.640843
     14          1           0        6.021064   -2.377429   -2.476659
     15          1           0        5.012168   -2.652310   -0.208689
     16          1           0        3.836781   -0.746087    0.863510
     17          1           0        3.535530    1.679249    1.002173
     18          8           0        0.341322    0.708361   -1.560769
     19          8           0       -0.050542    1.812292    0.797295
     20         21           0       -0.852451   -0.060936    0.090509
     21          8           0        1.543892    3.117761    1.594196
     22          8           0        1.978449    1.589303   -2.758319
     23          6           0        0.777105    3.259730    2.802645
     24          6           0        1.554602    0.815678   -3.889448
     25          1           0        1.376928    3.884614    3.470471
     26          1           0        0.605786    2.267906    3.241489
     27          1           0       -0.184050    3.738585    2.577530
     28          1           0        2.246482    1.059918   -4.701324
     29          1           0        0.526780    1.085964   -4.163891
     30          1           0        1.603990   -0.254202   -3.646671
     31          8           0       -1.837900   -1.957629    0.640801
     32          8           0       -0.294681   -0.410130    2.376234
     33          8           0       -2.369960    0.923249   -1.142786
     34         16           0       -3.241120    1.386739   -0.008868
     35         16           0       -1.630586   -2.662828   -0.667004
     36         16           0        1.111477   -0.719031    2.033560
     37          8           0       -2.603313    0.772323    1.193722
     38          8           0       -4.665691    1.276196   -0.163186
     39          8           0       -0.915036   -1.648665   -1.499614
     40          8           0       -1.127434   -4.009711   -0.641478
     41          8           0        1.147137   -0.804886    0.529746
     42          8           0        2.153558    0.084336    2.638441
     43          6           0        1.410094   -2.458249    2.552394
     44          6           0       -3.322246   -2.750961   -1.392446
     45          6           0       -2.863186    3.211396    0.133371
     46          9           0        2.654022   -2.782127    2.248315
     47          9           0        0.573483   -3.247295    1.910732
     48          9           0        1.224389   -2.561895    3.852249
     49          9           0       -3.922955   -1.583926   -1.248135
     50          9           0       -4.009694   -3.685151   -0.766760
     51          9           0       -3.225795   -3.046415   -2.673789
     52          9           0       -2.583738    3.499440    1.389393
     53          9           0       -3.919641    3.893637   -0.256481
     54          9           0       -1.832170    3.519921   -0.630381
     55          1           0        3.172512    3.903994   -0.020770
     56          1           0        3.415036    3.208205   -1.717631
 ---------------------------------------------------------------------
 Rotational constants (GHZ):           0.0898324           0.0688062           0.0570720
 Leave Link  202 at Tue Jan 28 15:59:48 2025, MaxMem= 82678120448 cpu:               3.0 elap:               0.2
 (Enter /sysapps/ubuntu-applications/gaussian-new/avx/g16/l301.exe)
 General basis read from cards:  (5D, 7F)
 Centers:      12     13     14     15     16     17     25     26     27     28
 Centers:      29     30     55     56
 S 3 1.00
     Exponent=  1.3010701000D+01 Coefficients=  1.9682158000D-02
     Exponent=  1.9622572000D+00 Coefficients=  1.3796524000D-01
     Exponent=  4.4453796000D-01 Coefficients=  4.7831935000D-01
 S 1 1.00
     Exponent=  1.2194962000D-01 Coefficients=  1.0000000000D+00
 P 1 1.00
     Exponent=  8.0000000000D-01 Coefficients=  1.0000000000D+00
 ****
 Centers:       1      2      3      4      5      6      7      8      9     10
 Centers:      11     23     24     43     44     45
 S 5 1.00
     Exponent=  1.2384016938D+03 Coefficients=  5.4568832082D-03
     Exponent=  1.8629004992D+02 Coefficients=  4.0638409211D-02
     Exponent=  4.2251176346D+01 Coefficients=  1.8025593888D-01
     Exponent=  1.1676557932D+01 Coefficients=  4.6315121755D-01
     Exponent=  3.5930506482D+00 Coefficients=  4.4087173314D-01
 S 1 1.00
     Exponent=  4.0245147363D-01 Coefficients=  1.0000000000D+00
 S 1 1.00
     Exponent=  1.3090182668D-01 Coefficients=  1.0000000000D+00
 P 3 1.00
     Exponent=  9.4680970621D+00 Coefficients=  3.8387871728D-02
     Exponent=  2.0103545142D+00 Coefficients=  2.1117025112D-01
     Exponent=  5.4771004707D-01 Coefficients=  5.1328172114D-01
 P 1 1.00
     Exponent=  1.5268613795D-01 Coefficients=  1.0000000000D+00
 D 1 1.00
     Exponent=  8.0000000000D-01 Coefficients=  1.0000000000D+00
 ****
 Centers:      18     19     21     22     31     32     33     37     38     39
 Centers:      40     41     42
 S 5 1.00
     Exponent=  2.2661767785D+03 Coefficients= -5.3431809926D-03
     Exponent=  3.4087010191D+02 Coefficients= -3.9890039230D-02
     Exponent=  7.7363135167D+01 Coefficients= -1.7853911985D-01
     Exponent=  2.1479644940D+01 Coefficients= -4.6427684959D-01
     Exponent=  6.6589433124D+00 Coefficients= -4.4309745172D-01
 S 1 1.00
     Exponent=  8.0975975668D-01 Coefficients=  1.0000000000D+00
 S 1 1.00
     Exponent=  2.5530772234D-01 Coefficients=  1.0000000000D+00
 P 3 1.00
     Exponent=  1.7721504317D+01 Coefficients=  4.3394573193D-02
     Exponent=  3.8635505440D+00 Coefficients=  2.3094120765D-01
     Exponent=  1.0480920883D+00 Coefficients=  5.1375311064D-01
 P 1 1.00
     Exponent=  2.7641544411D-01 Coefficients=  1.0000000000D+00
 D 1 1.00
     Exponent=  1.2000000000D+00 Coefficients=  1.0000000000D+00
 ****
 Centers:      46     47     48     49     50     51     52     53     54
 S 5 1.00
     Exponent=  2.8948325990D+03 Coefficients= -5.3408255515D-03
     Exponent=  4.3541939120D+02 Coefficients= -3.9904258866D-02
     Exponent=  9.8843328866D+01 Coefficients= -1.7912768038D-01
     Exponent=  2.7485198001D+01 Coefficients= -4.6758090825D-01
     Exponent=  8.5405498171D+00 Coefficients= -4.4653131020D-01
 S 1 1.00
     Exponent=  1.0654578038D+00 Coefficients=  1.0000000000D+00
 S 1 1.00
     Exponent=  3.3247346748D-01 Coefficients=  1.0000000000D+00
 P 3 1.00
     Exponent=  2.2696633924D+01 Coefficients= -4.5212874436D-02
     Exponent=  4.9872339257D+00 Coefficients= -2.3754317067D-01
     Exponent=  1.3491613954D+00 Coefficients= -5.1287353587D-01
 P 1 1.00
     Exponent=  3.4829881977D-01 Coefficients=  1.0000000000D+00
 D 1 1.00
     Exponent=  1.4000000000D+00 Coefficients=  1.0000000000D+00
 ****
 Centers:      34     35     36
 S 5 1.00
     Exponent=  9.1849303010D+03 Coefficients= -2.2294387756D-03
     Exponent=  1.3815105503D+03 Coefficients= -1.6683029937D-02
     Exponent=  3.1387147580D+02 Coefficients= -7.5262436116D-02
     Exponent=  8.8053870623D+01 Coefficients= -1.9376827038D-01
     Exponent=  2.7039914905D+01 Coefficients= -1.7718020803D-01
 S 3 1.00
     Exponent=  4.5648731303D+01 Coefficients= -1.0736062573D-01
     Exponent=  4.9664522326D+00 Coefficients=  6.5066293018D-01
     Exponent=  2.0116242047D+00 Coefficients=  5.9712155354D-01
 S 1 1.00
     Exponent=  3.5661077013D-01 Coefficients=  1.0000000000D+00
 S 1 1.00
     Exponent=  1.3507221477D-01 Coefficients=  1.0000000000D+00
 P 5 1.00
     Exponent=  2.6198233439D+02 Coefficients= -9.2729929822D-03
     Exponent=  6.1306894736D+01 Coefficients= -6.6547669241D-02
     Exponent=  1.9103729887D+01 Coefficients= -2.4828595903D-01
     Exponent=  6.6567720378D+00 Coefficients= -4.8703847402D-01
     Exponent=  2.3959635161D+00 Coefficients= -3.9337850312D-01
 P 1 1.00
     Exponent=  6.1776161679D-01 Coefficients=  1.0000000000D+00
 P 1 1.00
     Exponent=  1.6993376871D-01 Coefficients=  1.0000000000D+00
 D 1 1.00
     Exponent=  5.5000000000D-01 Coefficients=  1.0000000000D+00
 ****
 Centers:      20
 S 8 1.00
     Exponent=  1.9161291874D+05 Coefficients=  2.3076475942D-04
     Exponent=  2.8723850363D+04 Coefficients=  1.7890329946D-03
     Exponent=  6.5370116490D+03 Coefficients=  9.2990401140D-03
     Exponent=  1.8503097171D+03 Coefficients=  3.7739438011D-02
     Exponent=  6.0238855156D+02 Coefficients=  1.2227148359D-01
     Exponent=  2.1617324766D+02 Coefficients=  2.8814821470D-01
     Exponent=  8.3712517880D+01 Coefficients=  4.0517543099D-01
     Exponent=  3.2908707189D+01 Coefficients=  2.0566019623D-01
 S 4 1.00
     Exponent=  2.1134393234D+02 Coefficients= -2.4527991462D-02
     Exponent=  6.5128920139D+01 Coefficients= -1.1570158142D-01
     Exponent=  1.0034311535D+01 Coefficients=  5.5995283317D-01
     Exponent=  4.1596884597D+00 Coefficients=  5.6087765073D-01
 S 2 1.00
     Exponent=  6.0009041613D+00 Coefficients= -2.2840494325D-01
     Exponent=  9.8255784150D-01 Coefficients=  7.1948970378D-01
 S 1 1.00
     Exponent=  4.2483192773D-01 Coefficients=  1.0000000000D+00
 S 1 1.00
     Exponent=  7.7185462096D-02 Coefficients=  1.0000000000D+00
 S 1 1.00
     Exponent=  3.0147219702D-02 Coefficients=  1.0000000000D+00
 P 6 1.00
     Exponent=  9.4734122823D+02 Coefficients=  2.4737208744D-03
     Exponent=  2.2409699732D+02 Coefficients=  1.9742967060D-02
     Exponent=  7.1560334882D+01 Coefficients=  9.0357147549D-02
     Exponent=  2.6444824490D+01 Coefficients=  2.5201602503D-01
     Exponent=  1.0393798285D+01 Coefficients=  3.9675535929D-01
     Exponent=  4.1606304559D+00 Coefficients=  2.3208624517D-01
 P 3 1.00
     Exponent=  1.5565737135D+01 Coefficients= -2.7129423974D-02
     Exponent=  2.1121544865D+00 Coefficients=  5.5109256629D-01
     Exponent=  8.4184709021D-01 Coefficients=  1.0090635806D+00
 P 1 1.00
     Exponent=  3.2297542652D-01 Coefficients=  1.0000000000D+00
 P 1 1.00
     Exponent=  8.9748000000D-02 Coefficients=  1.0000000000D+00
 D 4 1.00
     Exponent=  3.0989390993D+01 Coefficients=  1.1902837431D-02
     Exponent=  8.6905465069D+00 Coefficients=  6.7655856850D-02
     Exponent=  2.9520256337D+00 Coefficients=  2.1332539722D-01
     Exponent=  1.0761910745D+00 Coefficients=  3.8391075578D-01
 D 1 1.00
     Exponent=  3.8338915095D-01 Coefficients=  4.3354716259D-01
 D 1 1.00
     Exponent=  1.2534686113D-01 Coefficients=  2.4509263822D-01
 D 1 1.00
     Exponent=  4.1000000000D-02 Coefficients=  1.0000000000D+00
 F 1 1.00
     Exponent=  3.4500000000D-01 Coefficients=  1.0000000000D+00
 ****
 Ernie: Thresh=  0.10000D-02 Tol=  0.10000D-05 Strict=F.
 There are   749 symmetry adapted cartesian basis functions of A   symmetry.
 There are   701 symmetry adapted basis functions of A   symmetry.
   701 basis functions,  1261 primitive gaussians,   749 cartesian basis functions
   182 alpha electrons      182 beta electrons
       nuclear repulsion energy      8079.4310833689 Hartrees.
 IExCor= 7252 DFT=T Ex+Corr=MN15 ExCW=0 ScaHFX=  0.440000
 ScaDFX=  1.000000  1.000000  1.000000  1.000000 ScalE2=  1.000000  1.000000
 IRadAn=      5 IRanWt=     -1 IRanGd=            0 ICorTp=0 IEmpDi=  4
 NAtoms=   56 NActive=   56 NUniq=   56 SFac= 1.00D+00 NAtFMM=   60 NAOKFM=F Big=F
 Integral buffers will be    131072 words long.
 Raffenetti 2 integral format.
 Two-electron integral symmetry is turned on.
 Force inversion solution in PCM.
 ------------------------------------------------------------------------------
 Polarizable Continuum Model (PCM)
 =================================
 Model                : PCM.
 Atomic radii         : SMD-Coulomb.
 Polarization charges : Total charges.
 Charge compensation  : None.
 Solution method      : Matrix inversion.
 Cavity type          : VdW (van der Waals Surface) (Alpha=1.000).
 Cavity algorithm     : GePol (No added spheres)
                        Default sphere list used, NSphG=   56.
                        Lebedev-Laikov grids with approx.  5.0 points / Ang**2.
                        Smoothing algorithm: York/Karplus (Gamma=1.0000).
                        Polarization charges: spherical gaussians, with
                                              point-specific exponents (IZeta= 3).
                        Self-potential: point-specific (ISelfS= 7).
                        Self-field    : sphere-specific E.n sum rule (ISelfD= 2).
 1st derivatives      : Analytical E(r).r(x)/FMM algorithm (CHGder, D1EAlg=3).
                        Cavity 1st derivative terms included.
 2nd derivatives      : Analytical E(r).r(xy)/FMM algorithm (CHGder, D2EAlg=3).
                        Cavity 2nd derivative terms included.
 Solvent              : DiChloroEthane, Eps=  10.125000 Eps(inf)=   2.087447
 ------------------------------------------------------------------------------
 GePol: Number of generator spheres                  =      56
 GePol: Total number of spheres                      =      56
 GePol: Number of exposed spheres                    =      55 ( 98.21%)
 GePol: Number of points                             =    3743
 GePol: Average weight of points                     =       0.14
 GePol: Minimum weight of points                     =   0.14D-10
 GePol: Maximum weight of points                     =    0.21501
 GePol: Number of points with low weight             =     207
 GePol: Fraction of low-weight points (<1% of avg)   =       5.53%
 GePol: Cavity surface area                          =    508.103 Ang**2
 GePol: Cavity volume                                =    621.330 Ang**3
 ------------------------------------------------------------------------------
 Atomic radii for non-electrostatic terms: SMD-CDS.
 ------------------------------------------------------------------------------
 PCM non-electrostatic energy =         0.0025210936 Hartrees.
 Nuclear repulsion after PCM non-electrostatic terms =     8079.4336044626 Hartrees.
 Leave Link  301 at Tue Jan 28 15:59:49 2025, MaxMem= 82678120448 cpu:              13.3 elap:               0.7
 (Enter /sysapps/ubuntu-applications/gaussian-new/avx/g16/l302.exe)
 NPDir=0 NMtPBC=     1 NCelOv=     1 NCel=       1 NClECP=     1 NCelD=      1
         NCelK=      1 NCelE2=     1 NClLst=     1 CellRange=     0.0.
 One-electron integrals computed using PRISM.
 One-electron integral symmetry used in STVInt
 NBasis=   701 RedAO= T EigKep=  2.76D-04  NBF=   701
 NBsUse=   701 1.00D-06 EigRej= -1.00D+00 NBFU=   701
 Precomputing XC quadrature grid using
 IXCGrd= 4 IRadAn=           5 IRanWt=          -1 IRanGd=           0 AccXCQ= 0.00D+00.
 Generated NRdTot=       0 NPtTot=           0 NUsed=           0 NTot=          32
 NSgBfM=   726   726   726   726   726 MxSgAt=    56 MxSgA2=    56.
 Leave Link  302 at Tue Jan 28 15:59:50 2025, MaxMem= 82678120448 cpu:              25.6 elap:               1.2
 (Enter /sysapps/ubuntu-applications/gaussian-new/avx/g16/l303.exe)
 DipDrv:  MaxL=1.
 Leave Link  303 at Tue Jan 28 15:59:51 2025, MaxMem= 82678120448 cpu:               5.6 elap:               0.4
 (Enter /sysapps/ubuntu-applications/gaussian-new/avx/g16/l401.exe)
 ExpMin= 3.01D-02 ExpMax= 1.92D+05 ExpMxC= 1.85D+03 IAcc=3 IRadAn=         5 AccDes= 0.00D+00
 Harris functional with IExCor= 1009 and IRadAn=       5 diagonalized for initial guess.
 HarFok:  IExCor= 1009 AccDes= 0.00D+00 IRadAn=         5 IDoV= 1 UseB2=F ITyADJ=14
 ICtDFT=  3500011 ScaDFX=  1.000000  1.000000  1.000000  1.000000
 FoFCou: FMM=F IPFlag=           0 FMFlag=      100000 FMFlg1=           0
         NFxFlg=           0 DoJE=T BraDBF=F KetDBF=T FulRan=T
         wScrn=  0.000000 ICntrl=       500 IOpCl=  0 I1Cent=   200000004 NGrid=           0
         NMat0=    1 NMatS0=      1 NMatT0=    0 NMatD0=    1 NMtDS0=    0 NMtDT0=    0
 Petite list used in FoFCou.
 Harris En= -4444.90201932564    
 JPrj=0 DoOrth=F DoCkMO=F.
 Leave Link  401 at Tue Jan 28 15:59:54 2025, MaxMem= 82678120448 cpu:              76.1 elap:               3.3
 (Enter /sysapps/ubuntu-applications/gaussian-new/avx/g16/l502.exe)
 Integral symmetry usage will be decided dynamically.
 Closed shell SCF:
 Using DIIS extrapolation, IDIIS=  1040.
 NGot= 82678120448 LenX= 82676972274 LenY= 82676410524
 Requested convergence on RMS density matrix=1.00D-08 within 500 cycles.
 Requested convergence on MAX density matrix=1.00D-06.
 Requested convergence on             energy=1.00D-06.
 No special actions if energy rises.
 Fock matrices will be formed incrementally for  20 cycles.

 Cycle   1  Pass 1  IDiag  1:
 FoFJK:  IHMeth= 1 ICntrl=       0 DoSepK=F KAlg= 0 I1Cent=           0 FoldK=F
 IRaf= 710000000 NMat=       1 IRICut=       1 DoRegI=T DoRafI=F ISym2E= 0 IDoP0=0 IntGTp=1.
 FoFCou: FMM=F IPFlag=           0 FMFlag=      100000 FMFlg1=           0
         NFxFlg=           0 DoJE=F BraDBF=F KetDBF=F FulRan=T
         wScrn=  0.000000 ICntrl=         0 IOpCl=  0 I1Cent=           0 NGrid=           0
         NMat0=    1 NMatS0=      1 NMatT0=    0 NMatD0=    1 NMtDS0=    0 NMtDT0=    0
 Symmetry not used in FoFCou.
 Inv3:  Mode=1 IEnd=    42030147.
 Iteration    1 A*A^-1 deviation from unit magnitude is 6.44D-15 for   3739.
 Iteration    1 A*A^-1 deviation from orthogonality  is 3.16D-15 for   3735   3217.
 Iteration    1 A^-1*A deviation from unit magnitude is 6.66D-15 for   3739.
 Iteration    1 A^-1*A deviation from orthogonality  is 1.77D-10 for   2087   2084.
 Iteration    2 A*A^-1 deviation from unit magnitude is 1.55D-15 for    122.
 Iteration    2 A*A^-1 deviation from orthogonality  is 2.35D-15 for   2321    504.
 Iteration    2 A^-1*A deviation from unit magnitude is 1.11D-15 for    348.
 Iteration    2 A^-1*A deviation from orthogonality  is 9.58D-16 for   2018    115.
 E= -4443.54434693330    
 DIIS: error= 2.32D-02 at cycle   1 NSaved=   1.
 NSaved= 1 IEnMin= 1 EnMin= -4443.54434693330     IErMin= 1 ErrMin= 2.32D-02
 ErrMax= 2.32D-02  0.00D+00 EMaxC= 1.00D-01 BMatC= 1.77D+00 BMatP= 1.77D+00
 IDIUse=3 WtCom= 7.68D-01 WtEn= 2.32D-01
 Coeff-Com:  0.100D+01
 Coeff-En:   0.100D+01
 Coeff:      0.100D+01
 Gap=     0.441 Goal=   None    Shift=    0.000
 GapD=    0.441 DampG=2.000 DampE=0.250 DampFc=0.5000 IDamp=-1.
 Damping current iteration by 5.00D-01
 RMSDP=4.00D-03 MaxDP=3.56D-01              OVMax= 2.59D-01

 Cycle   2  Pass 1  IDiag  1:
 RMSU=  2.00D-03    CP:  9.98D-01
 E= -4443.85334788019     Delta-E=       -0.309000946882 Rises=F Damp=T
 DIIS: error= 7.79D-03 at cycle   2 NSaved=   2.
 NSaved= 2 IEnMin= 2 EnMin= -4443.85334788019     IErMin= 2 ErrMin= 7.79D-03
 ErrMax= 7.79D-03  0.00D+00 EMaxC= 1.00D-01 BMatC= 1.97D-01 BMatP= 1.77D+00
 IDIUse=3 WtCom= 9.22D-01 WtEn= 7.79D-02
 Coeff-Com:  0.208D+00 0.792D+00
 Coeff-En:   0.374D+00 0.626D+00
 Coeff:      0.221D+00 0.779D+00
 Gap=     0.264 Goal=   None    Shift=    0.000
 RMSDP=8.83D-04 MaxDP=8.14D-02 DE=-3.09D-01 OVMax= 1.67D-01

 Cycle   3  Pass 1  IDiag  1:
 RMSU=  7.60D-04    CP:  9.95D-01  7.76D-01
 E= -4444.80966212682     Delta-E=       -0.956314246637 Rises=F Damp=F
 DIIS: error= 3.57D-03 at cycle   3 NSaved=   3.
 NSaved= 3 IEnMin= 3 EnMin= -4444.80966212682     IErMin= 3 ErrMin= 3.57D-03
 ErrMax= 3.57D-03  0.00D+00 EMaxC= 1.00D-01 BMatC= 3.55D-02 BMatP= 1.97D-01
 IDIUse=3 WtCom= 9.64D-01 WtEn= 3.57D-02
 Coeff-Com:  0.173D-01 0.290D+00 0.693D+00
 Coeff-En:   0.000D+00 0.000D+00 0.100D+01
 Coeff:      0.167D-01 0.280D+00 0.704D+00
 Gap=     0.251 Goal=   None    Shift=    0.000
 RMSDP=3.47D-04 MaxDP=2.77D-02 DE=-9.56D-01 OVMax= 2.89D-02

 Cycle   4  Pass 1  IDiag  1:
 RMSU=  2.94D-04    CP:  9.97D-01  8.11D-01  7.79D-01
 E= -4444.83251297458     Delta-E=       -0.022850847758 Rises=F Damp=F
 DIIS: error= 1.98D-03 at cycle   4 NSaved=   4.
 NSaved= 4 IEnMin= 4 EnMin= -4444.83251297458     IErMin= 4 ErrMin= 1.98D-03
 ErrMax= 1.98D-03  0.00D+00 EMaxC= 1.00D-01 BMatC= 8.84D-03 BMatP= 3.55D-02
 IDIUse=3 WtCom= 9.80D-01 WtEn= 1.98D-02
 Coeff-Com: -0.194D-01 0.782D-01 0.375D+00 0.566D+00
 Coeff-En:   0.000D+00 0.000D+00 0.120D+00 0.880D+00
 Coeff:     -0.190D-01 0.767D-01 0.370D+00 0.572D+00
 Gap=     0.244 Goal=   None    Shift=    0.000
 RMSDP=1.52D-04 MaxDP=1.49D-02 DE=-2.29D-02 OVMax= 1.37D-02

 Cycle   5  Pass 1  IDiag  1:
 RMSU=  1.03D-04    CP:  9.97D-01  8.19D-01  8.42D-01  6.62D-01
 E= -4444.83874233183     Delta-E=       -0.006229357254 Rises=F Damp=F
 DIIS: error= 9.29D-04 at cycle   5 NSaved=   5.
 NSaved= 5 IEnMin= 5 EnMin= -4444.83874233183     IErMin= 5 ErrMin= 9.29D-04
 ErrMax= 9.29D-04  0.00D+00 EMaxC= 1.00D-01 BMatC= 1.22D-03 BMatP= 8.84D-03
 IDIUse=3 WtCom= 9.91D-01 WtEn= 9.29D-03
 Coeff-Com: -0.137D-01 0.182D-01 0.133D+00 0.323D+00 0.539D+00
 Coeff-En:   0.000D+00 0.000D+00 0.000D+00 0.342D-01 0.966D+00
 Coeff:     -0.136D-01 0.180D-01 0.132D+00 0.320D+00 0.543D+00
 Gap=     0.243 Goal=   None    Shift=    0.000
 RMSDP=4.88D-05 MaxDP=5.38D-03 DE=-6.23D-03 OVMax= 5.04D-03

 Cycle   6  Pass 1  IDiag  1:
 RMSU=  2.89D-05    CP:  9.96D-01  8.24D-01  8.51D-01  6.97D-01  6.49D-01
 E= -4444.83965024674     Delta-E=       -0.000907914901 Rises=F Damp=F
 DIIS: error= 1.25D-04 at cycle   6 NSaved=   6.
 NSaved= 6 IEnMin= 6 EnMin= -4444.83965024674     IErMin= 6 ErrMin= 1.25D-04
 ErrMax= 1.25D-04  0.00D+00 EMaxC= 1.00D-01 BMatC= 5.80D-05 BMatP= 1.22D-03
 IDIUse=3 WtCom= 9.99D-01 WtEn= 1.25D-03
 Coeff-Com: -0.440D-02 0.158D-03 0.154D-01 0.706D-01 0.227D+00 0.691D+00
 Coeff-En:   0.000D+00 0.000D+00 0.000D+00 0.000D+00 0.000D+00 0.100D+01
 Coeff:     -0.440D-02 0.157D-03 0.154D-01 0.706D-01 0.227D+00 0.692D+00
 Gap=     0.243 Goal=   None    Shift=    0.000
 RMSDP=1.17D-05 MaxDP=9.46D-04 DE=-9.08D-04 OVMax= 8.89D-04

 Cycle   7  Pass 1  IDiag  1:
 RMSU=  8.34D-06    CP:  9.96D-01  8.24D-01  8.52D-01  7.08D-01  6.98D-01
                    CP:  8.02D-01
 E= -4444.83969251560     Delta-E=       -0.000042268864 Rises=F Damp=F
 DIIS: error= 3.33D-05 at cycle   7 NSaved=   7.
 NSaved= 7 IEnMin= 7 EnMin= -4444.83969251560     IErMin= 7 ErrMin= 3.33D-05
 ErrMax= 3.33D-05  0.00D+00 EMaxC= 1.00D-01 BMatC= 4.67D-06 BMatP= 5.80D-05
 IDIUse=1 WtCom= 1.00D+00 WtEn= 0.00D+00
 Coeff-Com: -0.107D-02-0.777D-03-0.233D-02 0.784D-02 0.645D-01 0.298D+00
 Coeff-Com:  0.634D+00
 Coeff:     -0.107D-02-0.777D-03-0.233D-02 0.784D-02 0.645D-01 0.298D+00
 Coeff:      0.634D+00
 Gap=     0.243 Goal=   None    Shift=    0.000
 RMSDP=3.96D-06 MaxDP=3.54D-04 DE=-4.23D-05 OVMax= 3.23D-04

 Cycle   8  Pass 1  IDiag  1:
 RMSU=  3.12D-06    CP:  9.96D-01  8.24D-01  8.53D-01  7.09D-01  7.03D-01
                    CP:  8.30D-01  7.43D-01
 E= -4444.83969581588     Delta-E=       -0.000003300281 Rises=F Damp=F
 DIIS: error= 2.23D-05 at cycle   8 NSaved=   8.
 NSaved= 8 IEnMin= 8 EnMin= -4444.83969581588     IErMin= 8 ErrMin= 2.23D-05
 ErrMax= 2.23D-05  0.00D+00 EMaxC= 1.00D-01 BMatC= 1.05D-06 BMatP= 4.67D-06
 IDIUse=1 WtCom= 1.00D+00 WtEn= 0.00D+00
 Coeff-Com:  0.403D-04-0.396D-03-0.363D-02-0.652D-02 0.320D-02 0.587D-01
 Coeff-Com:  0.352D+00 0.597D+00
 Coeff:      0.403D-04-0.396D-03-0.363D-02-0.652D-02 0.320D-02 0.587D-01
 Coeff:      0.352D+00 0.597D+00
 Gap=     0.243 Goal=   None    Shift=    0.000
 RMSDP=1.63D-06 MaxDP=1.26D-04 DE=-3.30D-06 OVMax= 1.32D-04

 Cycle   9  Pass 1  IDiag  1:
 RMSU=  1.14D-06    CP:  9.96D-01  8.25D-01  8.53D-01  7.08D-01  7.08D-01
                    CP:  8.40D-01  8.19D-01  7.64D-01
 E= -4444.83969656399     Delta-E=       -0.000000748109 Rises=F Damp=F
 DIIS: error= 6.13D-06 at cycle   9 NSaved=   9.
 NSaved= 9 IEnMin= 9 EnMin= -4444.83969656399     IErMin= 9 ErrMin= 6.13D-06
 ErrMax= 6.13D-06  0.00D+00 EMaxC= 1.00D-01 BMatC= 1.07D-07 BMatP= 1.05D-06
 IDIUse=1 WtCom= 1.00D+00 WtEn= 0.00D+00
 Coeff-Com:  0.114D-03-0.141D-03-0.172D-02-0.426D-02-0.378D-02 0.251D-02
 Coeff-Com:  0.130D+00 0.318D+00 0.559D+00
 Coeff:      0.114D-03-0.141D-03-0.172D-02-0.426D-02-0.378D-02 0.251D-02
 Coeff:      0.130D+00 0.318D+00 0.559D+00
 Gap=     0.243 Goal=   None    Shift=    0.000
 RMSDP=5.22D-07 MaxDP=3.80D-05 DE=-7.48D-07 OVMax= 3.16D-05

 Cycle  10  Pass 1  IDiag  1:
 RMSU=  3.52D-07    CP:  9.96D-01  8.25D-01  8.53D-01  7.08D-01  7.09D-01
                    CP:  8.44D-01  8.42D-01  7.96D-01  7.43D-01
 E= -4444.83969665143     Delta-E=       -0.000000087436 Rises=F Damp=F
 DIIS: error= 1.03D-06 at cycle  10 NSaved=  10.
 NSaved=10 IEnMin=10 EnMin= -4444.83969665143     IErMin=10 ErrMin= 1.03D-06
 ErrMax= 1.03D-06  0.00D+00 EMaxC= 1.00D-01 BMatC= 4.19D-09 BMatP= 1.07D-07
 IDIUse=1 WtCom= 1.00D+00 WtEn= 0.00D+00
 Coeff-Com:  0.336D-04-0.803D-05-0.203D-03-0.830D-03-0.145D-02-0.578D-02
 Coeff-Com:  0.991D-02 0.455D-01 0.177D+00 0.776D+00
 Coeff:      0.336D-04-0.803D-05-0.203D-03-0.830D-03-0.145D-02-0.578D-02
 Coeff:      0.991D-02 0.455D-01 0.177D+00 0.776D+00
 Gap=     0.243 Goal=   None    Shift=    0.000
 RMSDP=1.42D-07 MaxDP=8.26D-06 DE=-8.74D-08 OVMax= 1.72D-05

 Cycle  11  Pass 1  IDiag  1:
 RMSU=  9.81D-08    CP:  9.96D-01  8.25D-01  8.53D-01  7.08D-01  7.09D-01
                    CP:  8.44D-01  8.46D-01  8.13D-01  7.99D-01  9.21D-01
 E= -4444.83969665523     Delta-E=       -0.000000003800 Rises=F Damp=F
 DIIS: error= 6.02D-07 at cycle  11 NSaved=  11.
 NSaved=11 IEnMin=11 EnMin= -4444.83969665523     IErMin=11 ErrMin= 6.02D-07
 ErrMax= 6.02D-07  0.00D+00 EMaxC= 1.00D-01 BMatC= 9.46D-10 BMatP= 4.19D-09
 IDIUse=1 WtCom= 1.00D+00 WtEn= 0.00D+00
 Coeff-Com:  0.504D-05 0.106D-04 0.879D-04 0.442D-04-0.245D-03-0.312D-02
 Coeff-Com: -0.874D-02-0.130D-01 0.193D-01 0.364D+00 0.642D+00
 Coeff:      0.504D-05 0.106D-04 0.879D-04 0.442D-04-0.245D-03-0.312D-02
 Coeff:     -0.874D-02-0.130D-01 0.193D-01 0.364D+00 0.642D+00
 Gap=     0.243 Goal=   None    Shift=    0.000
 RMSDP=5.54D-08 MaxDP=4.44D-06 DE=-3.80D-09 OVMax= 6.08D-06

 Cycle  12  Pass 1  IDiag  1:
 RMSU=  4.20D-08    CP:  9.96D-01  8.25D-01  8.53D-01  7.08D-01  7.09D-01
                    CP:  8.44D-01  8.48D-01  8.17D-01  8.09D-01  9.78D-01
                    CP:  8.26D-01
 E= -4444.83969665588     Delta-E=       -0.000000000655 Rises=F Damp=F
 DIIS: error= 2.38D-07 at cycle  12 NSaved=  12.
 NSaved=12 IEnMin=12 EnMin= -4444.83969665588     IErMin=12 ErrMin= 2.38D-07
 ErrMax= 2.38D-07  0.00D+00 EMaxC= 1.00D-01 BMatC= 1.19D-10 BMatP= 9.46D-10
 IDIUse=1 WtCom= 1.00D+00 WtEn= 0.00D+00
 Coeff-Com: -0.153D-05 0.390D-05 0.666D-04 0.121D-03 0.809D-04-0.745D-03
 Coeff-Com: -0.532D-02-0.122D-01-0.160D-01 0.585D-01 0.299D+00 0.677D+00
 Coeff:     -0.153D-05 0.390D-05 0.666D-04 0.121D-03 0.809D-04-0.745D-03
 Coeff:     -0.532D-02-0.122D-01-0.160D-01 0.585D-01 0.299D+00 0.677D+00
 Gap=     0.243 Goal=   None    Shift=    0.000
 RMSDP=2.13D-08 MaxDP=2.38D-06 DE=-6.55D-10 OVMax= 2.85D-06

 Cycle  13  Pass 1  IDiag  1:
 RMSU=  1.37D-08    CP:  9.96D-01  8.25D-01  8.53D-01  7.08D-01  7.09D-01
                    CP:  8.44D-01  8.48D-01  8.18D-01  8.14D-01  1.00D+00
                    CP:  9.08D-01  8.08D-01
 E= -4444.83969665604     Delta-E=       -0.000000000156 Rises=F Damp=F
 DIIS: error= 5.62D-08 at cycle  13 NSaved=  13.
 NSaved=13 IEnMin=13 EnMin= -4444.83969665604     IErMin=13 ErrMin= 5.62D-08
 ErrMax= 5.62D-08  0.00D+00 EMaxC= 1.00D-01 BMatC= 1.60D-11 BMatP= 1.19D-10
 IDIUse=1 WtCom= 1.00D+00 WtEn= 0.00D+00
 Coeff-Com: -0.104D-05 0.610D-06 0.246D-04 0.529D-04 0.717D-04-0.560D-04
 Coeff-Com: -0.168D-02-0.460D-02-0.963D-02-0.786D-02 0.875D-01 0.340D+00
 Coeff-Com:  0.596D+00
 Coeff:     -0.104D-05 0.610D-06 0.246D-04 0.529D-04 0.717D-04-0.560D-04
 Coeff:     -0.168D-02-0.460D-02-0.963D-02-0.786D-02 0.875D-01 0.340D+00
 Coeff:      0.596D+00
 Gap=     0.243 Goal=   None    Shift=    0.000
 RMSDP=6.97D-09 MaxDP=7.51D-07 DE=-1.56D-10 OVMax= 5.59D-07

 Error on total polarization charges =  0.02616
 SCF Done:  E(RMN15) =  -4444.83969666     A.U. after   13 cycles
            NFock= 13  Conv=0.70D-08     -V/T= 2.0059
 KE= 4.418912694142D+03 PE=-2.665876006111D+04 EE= 9.715574065854D+03
 SMD-CDS (non-electrostatic) energy       (kcal/mol) =       1.58
 (included in total energy above)
 Leave Link  502 at Tue Jan 28 16:03:57 2025, MaxMem= 82678120448 cpu:            5782.0 elap:             243.6
 (Enter /sysapps/ubuntu-applications/gaussian-new/avx/g16/l801.exe)
 DoSCS=F DFT=T ScalE2(SS,OS)=  1.000000  1.000000
 Range of M.O.s used for correlation:     1   701
 NBasis=   701 NAE=   182 NBE=   182 NFC=     0 NFV=     0
 NROrb=    701 NOA=   182 NOB=   182 NVA=   519 NVB=   519
 Leave Link  801 at Tue Jan 28 16:03:58 2025, MaxMem= 82678120448 cpu:               1.8 elap:               0.2
 (Enter /sysapps/ubuntu-applications/gaussian-new/avx/g16/l1101.exe)
 Using compressed storage, NAtomX=    56.
 Will process     57 centers per pass.
 Leave Link 1101 at Tue Jan 28 16:04:10 2025, MaxMem= 82678120448 cpu:             149.7 elap:              12.1
 (Enter /sysapps/ubuntu-applications/gaussian-new/avx/g16/l1102.exe)
 Symmetrizing basis deriv contribution to polar:
 IMax=3 JMax=2 DiffMx= 0.00D+00
 Leave Link 1102 at Tue Jan 28 16:04:11 2025, MaxMem= 82678120448 cpu:               5.2 elap:               0.5
 (Enter /sysapps/ubuntu-applications/gaussian-new/avx/g16/l1110.exe)
 Forming Gx(P) for the SCF density, NAtomX=    56.
 Integral derivatives from FoFJK, PRISM(SPDF).
 Do as many integral derivatives as possible in FoFJK.
 G2DrvN: MDV=   82678115496.
 G2DrvN: will do    57 centers at a time, making    1 passes.
 Calling FoFCou, ICntrl=  3107 FMM=F I1Cent=   0 AccDes= 0.00D+00.
 FoFJK:  IHMeth= 1 ICntrl=    3107 DoSepK=F KAlg= 0 I1Cent=           0 FoldK=F
 IRaf=         0 NMat=       1 IRICut=       1 DoRegI=T DoRafI=F ISym2E= 0 IDoP0=0 IntGTp=1.
 FoFCou: FMM=F IPFlag=           0 FMFlag=      100000 FMFlg1=           0
         NFxFlg=           0 DoJE=F BraDBF=F KetDBF=F FulRan=T
         wScrn=  0.000000 ICntrl=      3107 IOpCl=  0 I1Cent=           0 NGrid=           0
         NMat0=    1 NMatS0=      1 NMatT0=    0 NMatD0=    1 NMtDS0=    0 NMtDT0=    0
 Symmetry not used in FoFCou.
 NEqPCM:  Using equilibrium solvation (IEInf=0, Eps=  10.1250, EpsInf=   2.0874)
 G2PCM: DoFxE=T DoFxN=T DoGrad=T DoDP/DQ/DG/TGxP=FFFF NFrqRd=   0 IEInf=0 SqF1=F DoCFld=F IF1Alg=4.
 GePol: Maximum number of non-zero 1st derivatives   =     203
 End of G2Drv F.D. properties file   721 does not exist.
 End of G2Drv F.D. properties file   722 does not exist.
 End of G2Drv F.D. properties file   788 does not exist.
 Leave Link 1110 at Tue Jan 28 16:17:20 2025, MaxMem= 82678120448 cpu:           18771.2 elap:             789.2
 (Enter /sysapps/ubuntu-applications/gaussian-new/avx/g16/l1002.exe)
 Minotr:  Closed shell wavefunction.
          IDoAtm=11111111111111111111111111111111111111111111111111
          IDoAtm=111111
 NEqPCM:  Using equilibrium solvation (IEInf=0, Eps=  10.1250, EpsInf=   2.0874)
          Direct CPHF calculation.
          Differentiating once with respect to electric field.
                with respect to dipole field.
          Differentiating once with respect to nuclear coordinates.
          Requested convergence is 1.0D-08 RMS, and 1.0D-07 maximum.
          Secondary convergence is 1.0D-12 RMS, and 1.0D-12 maximum.
          NewPWx=T KeepS1=F KeepF1=F KeepIn=T MapXYZ=F SortEE=F KeepMc=T.
        17277 words used for storage of precomputed grid.
 Two-electron integrals replicated using symmetry.
          MDV=   82678120448 using IRadAn=       1.
          Solving linear equations simultaneously, MaxMat=     384.
 FoF2E skips out because all densities are zero.
 CalDSu exits because no D1Ps are significant.
 FoFJK:  IHMeth= 1 ICntrl=       0 DoSepK=F KAlg= 0 I1Cent=           0 FoldK=F
 IRaf= 670000000 NMat=     168 IRICut=     420 DoRegI=T DoRafI=T ISym2E= 2 IDoP0=3 IntGTp=3.
          There are   171 degrees of freedom in the 1st order CPHF.  IDoFFX=6 NUNeed=     3.
    168 vectors produced by pass  0 Test12= 9.45D-14 1.00D-09 XBig12= 1.67D+02 3.71D+00.
 AX will form   168 AO Fock derivatives at one time.
    168 vectors produced by pass  1 Test12= 9.45D-14 1.00D-09 XBig12= 3.19D+01 5.78D-01.
    168 vectors produced by pass  2 Test12= 9.45D-14 1.00D-09 XBig12= 6.75D-01 5.60D-02.
    168 vectors produced by pass  3 Test12= 9.45D-14 1.00D-09 XBig12= 1.51D-02 8.82D-03.
    168 vectors produced by pass  4 Test12= 9.45D-14 1.00D-09 XBig12= 1.32D-04 7.15D-04.
    168 vectors produced by pass  5 Test12= 9.45D-14 1.00D-09 XBig12= 6.42D-07 4.61D-05.
    136 vectors produced by pass  6 Test12= 9.45D-14 1.00D-09 XBig12= 2.38D-09 3.59D-06.
     42 vectors produced by pass  7 Test12= 9.45D-14 1.00D-09 XBig12= 8.67D-12 1.81D-07.
      3 vectors produced by pass  8 Test12= 9.45D-14 1.00D-09 XBig12= 2.82D-14 1.19D-08.
      1 vectors produced by pass  9 Test12= 9.45D-14 1.00D-09 XBig12= 1.21D-15 1.65D-09.
 InvSVY:  IOpt=1 It=  1 EMax= 1.60D-14
 Solved reduced A of dimension  1190 with   171 vectors.
 FullF1:  Do perturbations      1 to       3.
 Isotropic polarizability for W=    0.000000      347.01 Bohr**3.
 End of Minotr F.D. properties file   721 does not exist.
 End of Minotr F.D. properties file   722 does not exist.
 End of Minotr F.D. properties file   788 does not exist.
 Leave Link 1002 at Tue Jan 28 16:47:10 2025, MaxMem= 82678120448 cpu:           42867.8 elap:            1789.4
 (Enter /sysapps/ubuntu-applications/gaussian-new/avx/g16/l601.exe)
 Copying SCF densities to generalized density rwf, IOpCl= 0 IROHF=0.

 **********************************************************************

            Population analysis using the SCF density.

 **********************************************************************

 Orbital symmetries:
       Occupied  (A) (A) (A) (A) (A) (A) (A) (A) (A) (A) (A) (A)
                 (A) (A) (A) (A) (A) (A) (A) (A) (A) (A) (A) (A)
                 (A) (A) (A) (A) (A) (A) (A) (A) (A) (A) (A) (A)
                 (A) (A) (A) (A) (A) (A) (A) (A) (A) (A) (A) (A)
                 (A) (A) (A) (A) (A) (A) (A) (A) (A) (A) (A) (A)
                 (A) (A) (A) (A) (A) (A) (A) (A) (A) (A) (A) (A)
                 (A) (A) (A) (A) (A) (A) (A) (A) (A) (A) (A) (A)
                 (A) (A) (A) (A) (A) (A) (A) (A) (A) (A) (A) (A)
                 (A) (A) (A) (A) (A) (A) (A) (A) (A) (A) (A) (A)
                 (A) (A) (A) (A) (A) (A) (A) (A) (A) (A) (A) (A)
                 (A) (A) (A) (A) (A) (A) (A) (A) (A) (A) (A) (A)
                 (A) (A) (A) (A) (A) (A) (A) (A) (A) (A) (A) (A)
                 (A) (A) (A) (A) (A) (A) (A) (A) (A) (A) (A) (A)
                 (A) (A) (A) (A) (A) (A) (A) (A) (A) (A) (A) (A)
                 (A) (A) (A) (A) (A) (A) (A) (A) (A) (A) (A) (A)
                 (A) (A)
       Virtual   (A) (A) (A) (A) (A) (A) (A) (A) (A) (A) (A) (A)
                 (A) (A) (A) (A) (A) (A) (A) (A) (A) (A) (A) (A)
                 (A) (A) (A) (A) (A) (A) (A) (A) (A) (A) (A) (A)
                 (A) (A) (A) (A) (A) (A) (A) (A) (A) (A) (A) (A)
                 (A) (A) (A) (A) (A) (A) (A) (A) (A) (A) (A) (A)
                 (A) (A) (A) (A) (A) (A) (A) (A) (A) (A) (A) (A)
                 (A) (A) (A) (A) (A) (A) (A) (A) (A) (A) (A) (A)
                 (A) (A) (A) (A) (A) (A) (A) (A) (A) (A) (A) (A)
                 (A) (A) (A) (A) (A) (A) (A) (A) (A) (A) (A) (A)
                 (A) (A) (A) (A) (A) (A) (A) (A) (A) (A) (A) (A)
                 (A) (A) (A) (A) (A) (A) (A) (A) (A) (A) (A) (A)
                 (A) (A) (A) (A) (A) (A) (A) (A) (A) (A) (A) (A)
                 (A) (A) (A) (A) (A) (A) (A) (A) (A) (A) (A) (A)
                 (A) (A) (A) (A) (A) (A) (A) (A) (A) (A) (A) (A)
                 (A) (A) (A) (A) (A) (A) (A) (A) (A) (A) (A) (A)
                 (A) (A) (A) (A) (A) (A) (A) (A) (A) (A) (A) (A)
                 (A) (A) (A) (A) (A) (A) (A) (A) (A) (A) (A) (A)
                 (A) (A) (A) (A) (A) (A) (A) (A) (A) (A) (A) (A)
                 (A) (A) (A) (A) (A) (A) (A) (A) (A) (A) (A) (A)
                 (A) (A) (A) (A) (A) (A) (A) (A) (A) (A) (A) (A)
                 (A) (A) (A) (A) (A) (A) (A) (A) (A) (A) (A) (A)
                 (A) (A) (A) (A) (A) (A) (A) (A) (A) (A) (A) (A)
                 (A) (A) (A) (A) (A) (A) (A) (A) (A) (A) (A) (A)
                 (A) (A) (A) (A) (A) (A) (A) (A) (A) (A) (A) (A)
                 (A) (A) (A) (A) (A) (A) (A) (A) (A) (A) (A) (A)
                 (A) (A) (A) (A) (A) (A) (A) (A) (A) (A) (A) (A)
                 (A) (A) (A) (A) (A) (A) (A) (A) (A) (A) (A) (A)
                 (A) (A) (A) (A) (A) (A) (A) (A) (A) (A) (A) (A)
                 (A) (A) (A) (A) (A) (A) (A) (A) (A) (A) (A) (A)
                 (A) (A) (A) (A) (A) (A) (A) (A) (A) (A) (A) (A)
                 (A) (A) (A) (A) (A) (A) (A) (A) (A) (A) (A) (A)
                 (A) (A) (A) (A) (A) (A) (A) (A) (A) (A) (A) (A)
                 (A) (A) (A) (A) (A) (A) (A) (A) (A) (A) (A) (A)
                 (A) (A) (A) (A) (A) (A) (A) (A) (A) (A) (A) (A)
                 (A) (A) (A) (A) (A) (A) (A) (A) (A) (A) (A) (A)
                 (A) (A) (A) (A) (A) (A) (A) (A) (A) (A) (A) (A)
                 (A) (A) (A) (A) (A) (A) (A) (A) (A) (A) (A) (A)
                 (A) (A) (A) (A) (A) (A) (A) (A) (A) (A) (A) (A)
                 (A) (A) (A) (A) (A) (A) (A) (A) (A) (A) (A) (A)
                 (A) (A) (A) (A) (A) (A) (A) (A) (A) (A) (A) (A)
                 (A) (A) (A) (A) (A) (A) (A) (A) (A) (A) (A) (A)
                 (A) (A) (A) (A) (A) (A) (A) (A) (A) (A) (A) (A)
                 (A) (A) (A) (A) (A) (A) (A) (A) (A) (A) (A) (A)
                 (A) (A) (A)
 The electronic state is 1-A.
 Alpha  occ. eigenvalues -- -160.21781 -88.06785 -88.06534 -88.06403 -24.34636
 Alpha  occ. eigenvalues --  -24.34530 -24.34501 -24.34493 -24.34422 -24.34412
 Alpha  occ. eigenvalues --  -24.34305 -24.34264 -24.34230 -18.90495 -18.89847
 Alpha  occ. eigenvalues --  -18.86559 -18.85790 -18.85586 -18.85287 -18.85111
 Alpha  occ. eigenvalues --  -18.84917 -18.84901 -18.84724 -18.84619 -18.84149
 Alpha  occ. eigenvalues --  -18.84020 -17.20393 -14.50525 -14.50511 -14.50458
 Alpha  occ. eigenvalues --  -10.34241 -10.34092 -10.33886 -10.24477 -10.23723
 Alpha  occ. eigenvalues --  -10.12104 -10.11786 -10.11572 -10.10952 -10.09021
 Alpha  occ. eigenvalues --  -10.07379 -10.06245 -10.06008 -10.05877 -10.05834
 Alpha  occ. eigenvalues --  -10.05726  -7.96618  -7.96378  -7.96271  -6.16152
 Alpha  occ. eigenvalues --   -6.16071  -6.15960  -6.15896  -6.15845  -6.15787
 Alpha  occ. eigenvalues --   -6.15740  -6.15720  -6.15609  -2.16645  -1.41449
 Alpha  occ. eigenvalues --   -1.41268  -1.40609  -1.38408  -1.38269  -1.38142
 Alpha  occ. eigenvalues --   -1.28414  -1.28356  -1.28194  -1.28189  -1.28118
 Alpha  occ. eigenvalues --   -1.28097  -1.21248  -1.20724  -1.20652  -1.19635
 Alpha  occ. eigenvalues --   -1.18719  -1.09881  -1.08462  -1.08074  -1.07809
 Alpha  occ. eigenvalues --   -1.07727  -1.06086  -1.05692  -1.05587  -0.95909
 Alpha  occ. eigenvalues --   -0.89769  -0.81668  -0.80937  -0.80848  -0.80500
 Alpha  occ. eigenvalues --   -0.80197  -0.78706  -0.78241  -0.73842  -0.72810
 Alpha  occ. eigenvalues --   -0.72533  -0.72356  -0.68445  -0.68303  -0.68239
 Alpha  occ. eigenvalues --   -0.68207  -0.68117  -0.68035  -0.67987  -0.65790
 Alpha  occ. eigenvalues --   -0.64430  -0.64259  -0.63197  -0.62675  -0.62452
 Alpha  occ. eigenvalues --   -0.62346  -0.61519  -0.59535  -0.59010  -0.58258
 Alpha  occ. eigenvalues --   -0.57672  -0.57510  -0.57128  -0.56802  -0.56434
 Alpha  occ. eigenvalues --   -0.56331  -0.56065  -0.55821  -0.55594  -0.55355
 Alpha  occ. eigenvalues --   -0.55121  -0.54839  -0.54508  -0.54466  -0.54279
 Alpha  occ. eigenvalues --   -0.54099  -0.53980  -0.53857  -0.52177  -0.52127
 Alpha  occ. eigenvalues --   -0.52078  -0.52011  -0.51835  -0.51778  -0.51210
 Alpha  occ. eigenvalues --   -0.50523  -0.49603  -0.49578  -0.49370  -0.49344
 Alpha  occ. eigenvalues --   -0.48482  -0.48252  -0.47913  -0.47630  -0.46340
 Alpha  occ. eigenvalues --   -0.46083  -0.46021  -0.45468  -0.44466  -0.43622
 Alpha  occ. eigenvalues --   -0.43514  -0.43050  -0.43008  -0.42621  -0.42216
 Alpha  occ. eigenvalues --   -0.41993  -0.41568  -0.40626  -0.40474  -0.40200
 Alpha  occ. eigenvalues --   -0.40106  -0.39630  -0.39440  -0.39125  -0.38688
 Alpha  occ. eigenvalues --   -0.38245  -0.38205  -0.37896  -0.37589  -0.37426
 Alpha  occ. eigenvalues --   -0.37221  -0.37106  -0.36850  -0.36818  -0.36604
 Alpha  occ. eigenvalues --   -0.29402  -0.28648
 Alpha virt. eigenvalues --   -0.04345  -0.02222  -0.01810  -0.00241   0.00960
 Alpha virt. eigenvalues --    0.01299   0.01707   0.02245   0.03671   0.07029
 Alpha virt. eigenvalues --    0.07489   0.08337   0.08652   0.09016   0.09384
 Alpha virt. eigenvalues --    0.09490   0.09550   0.10199   0.10672   0.10965
 Alpha virt. eigenvalues --    0.11503   0.12131   0.12373   0.13051   0.13599
 Alpha virt. eigenvalues --    0.13804   0.14804   0.14907   0.15259   0.16148
 Alpha virt. eigenvalues --    0.16197   0.16537   0.17035   0.17679   0.17770
 Alpha virt. eigenvalues --    0.18105   0.18523   0.18836   0.19092   0.19908
 Alpha virt. eigenvalues --    0.20330   0.20884   0.21642   0.22257   0.22445
 Alpha virt. eigenvalues --    0.23168   0.23636   0.23846   0.24518   0.25206
 Alpha virt. eigenvalues --    0.25534   0.25617   0.26132   0.26385   0.27040
 Alpha virt. eigenvalues --    0.27211   0.27536   0.28103   0.28325   0.28809
 Alpha virt. eigenvalues --    0.29229   0.29859   0.31107   0.31871   0.33081
 Alpha virt. eigenvalues --    0.33889   0.35563   0.35995   0.37009   0.38111
 Alpha virt. eigenvalues --    0.38682   0.39683   0.40508   0.40942   0.41715
 Alpha virt. eigenvalues --    0.41894   0.42328   0.42642   0.44537   0.44764
 Alpha virt. eigenvalues --    0.45328   0.46290   0.46487   0.46879   0.46938
 Alpha virt. eigenvalues --    0.47294   0.47394   0.47798   0.48369   0.48964
 Alpha virt. eigenvalues --    0.49022   0.49323   0.50018   0.50517   0.50903
 Alpha virt. eigenvalues --    0.51571   0.51846   0.52164   0.52314   0.53342
 Alpha virt. eigenvalues --    0.53925   0.53973   0.54832   0.55105   0.56065
 Alpha virt. eigenvalues --    0.56374   0.57049   0.57897   0.58488   0.59111
 Alpha virt. eigenvalues --    0.59776   0.60105   0.61037   0.61721   0.62263
 Alpha virt. eigenvalues --    0.63217   0.63616   0.64506   0.64934   0.65364
 Alpha virt. eigenvalues --    0.66056   0.66643   0.67001   0.67282   0.67876
 Alpha virt. eigenvalues --    0.68107   0.68243   0.68677   0.68951   0.69281
 Alpha virt. eigenvalues --    0.69716   0.70149   0.70366   0.70911   0.70966
 Alpha virt. eigenvalues --    0.71377   0.71751   0.71976   0.72572   0.72832
 Alpha virt. eigenvalues --    0.73470   0.73541   0.73961   0.74458   0.75052
 Alpha virt. eigenvalues --    0.75293   0.75875   0.76147   0.77380   0.77864
 Alpha virt. eigenvalues --    0.78187   0.79163   0.80734   0.80778   0.82533
 Alpha virt. eigenvalues --    0.83012   0.83195   0.84567   0.84946   0.85800
 Alpha virt. eigenvalues --    0.86324   0.86744   0.87799   0.88187   0.89050
 Alpha virt. eigenvalues --    0.89467   0.90453   0.91194   0.92022   0.92796
 Alpha virt. eigenvalues --    0.94662   0.95301   0.95806   0.96051   0.96869
 Alpha virt. eigenvalues --    0.97447   0.98261   0.98945   1.00837   1.01500
 Alpha virt. eigenvalues --    1.02768   1.02971   1.03599   1.04565   1.05041
 Alpha virt. eigenvalues --    1.05809   1.06479   1.06966   1.08449   1.08758
 Alpha virt. eigenvalues --    1.09321   1.09469   1.10478   1.10771   1.11249
 Alpha virt. eigenvalues --    1.11294   1.12200   1.12348   1.12738   1.13093
 Alpha virt. eigenvalues --    1.13663   1.13827   1.14447   1.15244   1.15812
 Alpha virt. eigenvalues --    1.16173   1.16936   1.17746   1.17835   1.18015
 Alpha virt. eigenvalues --    1.18989   1.19374   1.20147   1.20744   1.20976
 Alpha virt. eigenvalues --    1.21315   1.21815   1.22132   1.22853   1.23959
 Alpha virt. eigenvalues --    1.24678   1.25075   1.25780   1.26331   1.26873
 Alpha virt. eigenvalues --    1.27062   1.27985   1.28081   1.29202   1.29475
 Alpha virt. eigenvalues --    1.29696   1.30183   1.31110   1.31711   1.31915
 Alpha virt. eigenvalues --    1.32005   1.32680   1.33181   1.33790   1.33821
 Alpha virt. eigenvalues --    1.35198   1.35879   1.36107   1.36915   1.37722
 Alpha virt. eigenvalues --    1.38310   1.39107   1.40291   1.40569   1.41202
 Alpha virt. eigenvalues --    1.41440   1.42107   1.42506   1.42726   1.42945
 Alpha virt. eigenvalues --    1.43695   1.43755   1.44415   1.45448   1.45886
 Alpha virt. eigenvalues --    1.46187   1.47418   1.48650   1.49544   1.50642
 Alpha virt. eigenvalues --    1.51345   1.51925   1.52258   1.53189   1.53541
 Alpha virt. eigenvalues --    1.53899   1.54081   1.55414   1.55753   1.56187
 Alpha virt. eigenvalues --    1.56394   1.57426   1.57889   1.58254   1.58933
 Alpha virt. eigenvalues --    1.59402   1.59808   1.61368   1.61707   1.62611
 Alpha virt. eigenvalues --    1.63542   1.64967   1.65927   1.66509   1.67486
 Alpha virt. eigenvalues --    1.67688   1.68630   1.69411   1.69860   1.70418
 Alpha virt. eigenvalues --    1.71440   1.71964   1.72861   1.73039   1.74081
 Alpha virt. eigenvalues --    1.74591   1.75378   1.75489   1.76057   1.76735
 Alpha virt. eigenvalues --    1.77149   1.78092   1.78902   1.79240   1.79828
 Alpha virt. eigenvalues --    1.80762   1.81250   1.82675   1.82817   1.83818
 Alpha virt. eigenvalues --    1.84289   1.85293   1.85728   1.85917   1.86404
 Alpha virt. eigenvalues --    1.87074   1.87541   1.87861   1.88423   1.89130
 Alpha virt. eigenvalues --    1.89854   1.90130   1.90564   1.90827   1.91235
 Alpha virt. eigenvalues --    1.92030   1.92110   1.93026   1.93286   1.93822
 Alpha virt. eigenvalues --    1.95003   1.95344   1.96679   1.97602   1.98237
 Alpha virt. eigenvalues --    1.98321   1.99328   1.99883   2.00333   2.00685
 Alpha virt. eigenvalues --    2.01691   2.01845   2.02136   2.02627   2.03397
 Alpha virt. eigenvalues --    2.04867   2.05584   2.07690   2.08993   2.09909
 Alpha virt. eigenvalues --    2.10286   2.10712   2.11761   2.13675   2.13987
 Alpha virt. eigenvalues --    2.15108   2.15399   2.16403   2.17575   2.18293
 Alpha virt. eigenvalues --    2.22849   2.23558   2.24693   2.25262   2.26224
 Alpha virt. eigenvalues --    2.27617   2.29197   2.29541   2.30081   2.30701
 Alpha virt. eigenvalues --    2.31363   2.31907   2.32218   2.37849   2.39015
 Alpha virt. eigenvalues --    2.39643   2.41001   2.47774   2.50520   2.53112
 Alpha virt. eigenvalues --    2.54180   2.54385   2.55170   2.56169   2.57644
 Alpha virt. eigenvalues --    2.58023   2.59244   2.59349   2.59963   2.60231
 Alpha virt. eigenvalues --    2.60685   2.61566   2.62336   2.62664   2.63064
 Alpha virt. eigenvalues --    2.63647   2.63790   2.64571   2.64805   2.64974
 Alpha virt. eigenvalues --    2.65451   2.66332   2.67946   2.68320   2.69453
 Alpha virt. eigenvalues --    2.70291   2.71197   2.71558   2.72127   2.73024
 Alpha virt. eigenvalues --    2.73441   2.74875   2.76173   2.77379   2.77781
 Alpha virt. eigenvalues --    2.77930   2.78900   2.79177   2.79918   2.80471
 Alpha virt. eigenvalues --    2.80929   2.81786   2.81912   2.82517   2.83653
 Alpha virt. eigenvalues --    2.84297   2.85082   2.85495   2.85934   2.86838
 Alpha virt. eigenvalues --    2.89280   2.89662   2.90455   2.92089   2.93191
 Alpha virt. eigenvalues --    2.93552   2.93983   2.94545   2.95672   2.96735
 Alpha virt. eigenvalues --    2.97046   2.97707   2.97941   2.97973   2.98037
 Alpha virt. eigenvalues --    2.98468   2.99087   3.00180   3.02062   3.02229
 Alpha virt. eigenvalues --    3.02345   3.02352   3.02377   3.02451   3.02510
 Alpha virt. eigenvalues --    3.02757   3.02856   3.02901   3.03033   3.03064
 Alpha virt. eigenvalues --    3.03448   3.03904   3.04084   3.04676   3.05494
 Alpha virt. eigenvalues --    3.06190   3.06621   3.07071   3.07646   3.12298
 Alpha virt. eigenvalues --    3.13628   3.15070   3.15213   3.15375   3.15481
 Alpha virt. eigenvalues --    3.15509   3.16172   3.17311   3.17681   3.19818
 Alpha virt. eigenvalues --    3.21002   3.23225   3.23654   3.33902   3.34599
 Alpha virt. eigenvalues --    3.35972   3.36738   3.36997   3.37145   3.37430
 Alpha virt. eigenvalues --    3.37859   3.39354   3.39895   3.42115   3.51637
 Alpha virt. eigenvalues --    3.51727   3.51885   3.52225   3.52711   3.52962
 Alpha virt. eigenvalues --    3.53113   3.53370   3.56299   3.62174   3.63502
 Alpha virt. eigenvalues --    3.67077   3.67727   3.67766   3.80819   3.81740
 Alpha virt. eigenvalues --    3.81911   3.82672   3.82792   3.83539
          Condensed to atoms (all electrons):
 Mulliken charges:
               1
     1  C    0.080137
     2  C   -0.010174
     3  C   -0.005353
     4  C    0.012298
     5  C    0.005884
     6  C    0.019861
     7  C   -0.075946
     8  C   -0.294903
     9  C    0.188809
    10  C    0.301424
    11  C    0.339434
    12  H   -0.006702
    13  H    0.008361
    14  H    0.013407
    15  H    0.007758
    16  H   -0.054641
    17  H    0.073722
    18  O   -0.225077
    19  O   -0.242141
    20  Sc   0.254534
    21  O   -0.235663
    22  O   -0.248787
    23  C    0.169403
    24  C    0.153466
    25  H    0.074823
    26  H    0.054116
    27  H    0.063968
    28  H    0.068893
    29  H    0.076782
    30  H    0.075441
    31  O   -0.423522
    32  O   -0.406506
    33  O   -0.426270
    34  S    0.874427
    35  S    0.877742
    36  S    0.849573
    37  O   -0.420620
    38  O   -0.382568
    39  O   -0.422260
    40  O   -0.386175
    41  O   -0.432718
    42  O   -0.398322
    43  C    0.452793
    44  C    0.447833
    45  C    0.440656
    46  F   -0.116236
    47  F   -0.107935
    48  F   -0.118137
    49  F   -0.112613
    50  F   -0.119255
    51  F   -0.121089
    52  F   -0.113915
    53  F   -0.116856
    54  F   -0.115655
    55  H    0.074513
    56  H    0.079981
 Sum of Mulliken charges =  -0.00000
 Mulliken charges with hydrogens summed into heavy atoms:
               1
     1  C    0.080137
     2  C   -0.016876
     3  C    0.003008
     4  C    0.025705
     5  C    0.013642
     6  C   -0.034779
     7  C   -0.002224
     8  C   -0.294903
     9  C    0.343303
    10  C    0.301424
    11  C    0.339434
    18  O   -0.225077
    19  O   -0.242141
    20  Sc   0.254534
    21  O   -0.235663
    22  O   -0.248787
    23  C    0.362310
    24  C    0.374582
    31  O   -0.423522
    32  O   -0.406506
    33  O   -0.426270
    34  S    0.874427
    35  S    0.877742
    36  S    0.849573
    37  O   -0.420620
    38  O   -0.382568
    39  O   -0.422260
    40  O   -0.386175
    41  O   -0.432718
    42  O   -0.398322
    43  C    0.452793
    44  C    0.447833
    45  C    0.440656
    46  F   -0.116236
    47  F   -0.107935
    48  F   -0.118137
    49  F   -0.112613
    50  F   -0.119255
    51  F   -0.121089
    52  F   -0.113915
    53  F   -0.116856
    54  F   -0.115655
 APT charges:
               1
     1  C   -0.045239
     2  C   -0.037250
     3  C   -0.069052
     4  C   -0.016343
     5  C   -0.060683
     6  C   -0.054255
     7  C    0.474768
     8  C   -0.888941
     9  C    0.094312
    10  C    1.847488
    11  C    1.652721
    12  H    0.065525
    13  H    0.046295
    14  H    0.049107
    15  H    0.050828
    16  H    0.078119
    17  H    0.040360
    18  O   -1.208753
    19  O   -1.315350
    20  Sc   3.064163
    21  O   -1.121953
    22  O   -1.105238
    23  C    0.559471
    24  C    0.541473
    25  H    0.040146
    26  H    0.035014
    27  H    0.024962
    28  H    0.037878
    29  H    0.021084
    30  H    0.020901
    31  O   -1.202655
    32  O   -1.113154
    33  O   -1.243262
    34  S    2.491515
    35  S    2.442109
    36  S    2.402829
    37  O   -1.179910
    38  O   -0.974431
    39  O   -1.182463
    40  O   -0.946974
    41  O   -1.237285
    42  O   -1.023135
    43  C    1.924391
    44  C    1.904454
    45  C    1.912145
    46  F   -0.662515
    47  F   -0.642758
    48  F   -0.673188
    49  F   -0.650320
    50  F   -0.674561
    51  F   -0.657649
    52  F   -0.651453
    53  F   -0.690106
    54  F   -0.648473
    55  H    0.064158
    56  H    0.091136
 Sum of APT charges =   0.00000
 APT charges with hydrogens summed into heavy atoms:
               1
     1  C   -0.045239
     2  C    0.028275
     3  C   -0.022757
     4  C    0.032763
     5  C   -0.009854
     6  C    0.023865
     7  C    0.515128
     8  C   -0.888941
     9  C    0.249606
    10  C    1.847488
    11  C    1.652721
    18  O   -1.208753
    19  O   -1.315350
    20  Sc   3.064163
    21  O   -1.121953
    22  O   -1.105238
    23  C    0.659592
    24  C    0.621336
    31  O   -1.202655
    32  O   -1.113154
    33  O   -1.243262
    34  S    2.491515
    35  S    2.442109
    36  S    2.402829
    37  O   -1.179910
    38  O   -0.974431
    39  O   -1.182463
    40  O   -0.946974
    41  O   -1.237285
    42  O   -1.023135
    43  C    1.924391
    44  C    1.904454
    45  C    1.912145
    46  F   -0.662515
    47  F   -0.642758
    48  F   -0.673188
    49  F   -0.650320
    50  F   -0.674561
    51  F   -0.657649
    52  F   -0.651453
    53  F   -0.690106
    54  F   -0.648473
 Electronic spatial extent (au):  <R**2>=          20358.2808
 Charge=              0.0000 electrons
 Dipole moment (field-independent basis, Debye):
    X=             10.7228    Y=              9.2862    Z=             -3.8347  Tot=             14.6941
 Quadrupole moment (field-independent basis, Debye-Ang):
   XX=           -270.1743   YY=           -248.2224   ZZ=           -243.0806
   XY=              7.3343   XZ=            -12.1516   YZ=              2.5308
 Traceless Quadrupole moment (field-independent basis, Debye-Ang):
   XX=            -16.3485   YY=              5.6034   ZZ=             10.7451
   XY=              7.3343   XZ=            -12.1516   YZ=              2.5308
 Octapole moment (field-independent basis, Debye-Ang**2):
  XXX=             -3.7416  YYY=            105.0855  ZZZ=            -46.8418  XYY=             17.0074
  XXY=            -31.5234  XXZ=            -57.5847  XZZ=             26.6622  YZZ=             37.0949
  YYZ=             49.5810  XYZ=            -11.3036
 Hexadecapole moment (field-independent basis, Debye-Ang**3):
 XXXX=         -12620.9150 YYYY=          -7311.2932 ZZZZ=          -4236.7310 XXXY=            -14.4853
 XXXZ=           -100.5423 YYYX=            -62.5664 YYYZ=             46.7556 ZZZX=            -19.6359
 ZZZY=             -9.8005 XXYY=          -3040.8495 XXZZ=          -2603.6499 YYZZ=          -1840.5729
 XXYZ=             31.4711 YYXZ=             63.2086 ZZXY=             20.2005
 N-N= 8.079433604463D+03 E-N=-2.665876003521D+04  KE= 4.418912694142D+03
  Exact polarizability: 352.864 -20.257 358.389 -29.242   9.315 329.762
 Approx polarizability: 356.499 -13.053 361.083 -27.664   4.340 352.742
 No NMR shielding tensors so no spin-rotation constants.
 Leave Link  601 at Tue Jan 28 16:47:12 2025, MaxMem= 82678120448 cpu:              18.7 elap:               0.9
 (Enter /sysapps/ubuntu-applications/gaussian-new/avx/g16/l701.exe)
 ... and contract with generalized density number  0.
 Compute integral second derivatives.
 D2PCM: PCM CHGder 2nd derivatives, FixD1E=F FixD2E=F DoIter=F DoCFld=F I1PDM=0
 GePol: Maximum number of non-zero 2nd derivatives   =     203
 Leave Link  701 at Tue Jan 28 16:47:43 2025, MaxMem= 82678120448 cpu:             754.4 elap:              31.5
 (Enter /sysapps/ubuntu-applications/gaussian-new/avx/g16/l702.exe)
 L702 exits ... SP integral derivatives will be done elsewhere.
 Leave Link  702 at Tue Jan 28 16:47:43 2025, MaxMem= 82678120448 cpu:               1.3 elap:               0.1
 (Enter /sysapps/ubuntu-applications/gaussian-new/avx/g16/l703.exe)
 Integral derivatives from FoFJK, PRISM(SPDF).
 Compute integral second derivatives, UseDBF=F ICtDFT=           0.
 Calling FoFJK, ICntrl=    100127 FMM=F ISym2X=0 I1Cent= 0 IOpClX= 0 NMat=1 NMatS=1 NMatT=0.
 FoFJK:  IHMeth= 1 ICntrl=  100127 DoSepK=F KAlg= 0 I1Cent=           0 FoldK=F
 IRaf=         0 NMat=       1 IRICut=       1 DoRegI=T DoRafI=F ISym2E= 0 IDoP0=0 IntGTp=1.
 FoFCou: FMM=F IPFlag=           0 FMFlag=      100000 FMFlg1=         800
         NFxFlg=           0 DoJE=F BraDBF=F KetDBF=F FulRan=T
         wScrn=  0.000000 ICntrl=    100127 IOpCl=  0 I1Cent=           0 NGrid=           0
         NMat0=    1 NMatS0=      1 NMatT0=    0 NMatD0=    1 NMtDS0=    0 NMtDT0=    0
 Symmetry not used in FoFCou.
 Leave Link  703 at Tue Jan 28 16:56:06 2025, MaxMem= 82678120448 cpu:           12043.1 elap:             502.3
 (Enter /sysapps/ubuntu-applications/gaussian-new/avx/g16/l716.exe)
 Dipole        = 4.21867519D+00 3.65347480D+00-1.50869380D+00
 Polarizability= 3.52864462D+02-2.02572064D+01 3.58388697D+02
                -2.92424559D+01 9.31500112D+00 3.29762184D+02
 Full mass-weighted force constant matrix:
 Low frequencies ---   -4.4671    0.0015    0.0021    0.0031    6.9498    8.2315
 Low frequencies ---   23.4673   24.1027   27.3012
 Diagonal vibrational polarizability:
      263.7907318     247.9998694     186.0992159
 Harmonic frequencies (cm**-1), IR intensities (KM/Mole), Raman scattering
 activities (A**4/AMU), depolarization ratios for plane and unpolarized
 incident light, reduced masses (AMU), force constants (mDyne/A),
 and normal coordinates:
                      1                      2                      3
                      A                      A                      A
 Frequencies --     23.3863                23.9658                27.2658
 Red. masses --      8.5852                15.7219                 9.3794
 Frc consts  --      0.0028                 0.0053                 0.0041
 IR Inten    --      0.2886                 0.1713                 0.1962
  Atom  AN      X      Y      Z        X      Y      Z        X      Y      Z
     1   6     0.05   0.03   0.04    -0.03  -0.02  -0.02     0.02   0.10  -0.01
     2   6     0.09   0.01   0.06    -0.08  -0.03  -0.04     0.05   0.19   0.01
     3   6     0.16   0.01   0.12    -0.12  -0.04  -0.06     0.09   0.24  -0.03
     4   6     0.19   0.04   0.17    -0.11  -0.04  -0.06     0.08   0.20  -0.11
     5   6     0.15   0.06   0.15    -0.06  -0.02  -0.04     0.04   0.11  -0.14
     6   6     0.08   0.06   0.09    -0.02  -0.01  -0.02     0.01   0.06  -0.09
     7   6     0.00   0.03  -0.02    -0.00  -0.01  -0.00    -0.01   0.06   0.03
     8   6    -0.01  -0.02  -0.04    -0.00   0.01   0.02    -0.03   0.01   0.04
     9   6    -0.03   0.00  -0.07     0.00  -0.00   0.01    -0.06   0.06   0.06
    10   6    -0.02  -0.00  -0.06     0.01   0.01   0.03    -0.03  -0.03   0.05
    11   6     0.02  -0.07  -0.03    -0.03   0.02   0.02    -0.00   0.00   0.03
    12   1     0.07  -0.02   0.02    -0.09  -0.03  -0.05     0.05   0.22   0.07
    13   1     0.19  -0.00   0.13    -0.15  -0.05  -0.08     0.12   0.30  -0.01
    14   1     0.25   0.05   0.22    -0.14  -0.05  -0.08     0.11   0.24  -0.14
    15   1     0.17   0.09   0.19    -0.05  -0.02  -0.03     0.04   0.08  -0.19
    16   1     0.05   0.07   0.08     0.01  -0.00   0.00    -0.02  -0.01  -0.11
    17   1    -0.01   0.07  -0.01     0.01  -0.02  -0.01    -0.00   0.03   0.03
    18   8    -0.01  -0.04  -0.03    -0.02   0.01   0.04     0.04  -0.05   0.02
    19   8    -0.01  -0.01  -0.05     0.02  -0.00   0.05    -0.02  -0.05   0.03
    20  21    -0.01  -0.02  -0.02     0.02  -0.01   0.06    -0.00  -0.05   0.00
    21   8    -0.03   0.03  -0.07     0.02   0.02   0.02    -0.05  -0.05   0.07
    22   8     0.06  -0.14  -0.02    -0.07   0.05   0.01    -0.01   0.05   0.04
    23   6    -0.03   0.04  -0.07     0.02   0.02   0.02    -0.06  -0.09   0.07
    24   6     0.09  -0.18   0.01    -0.10   0.07   0.01     0.03   0.05   0.02
    25   1    -0.02   0.04  -0.08     0.01   0.06   0.00    -0.07  -0.10   0.09
    26   1    -0.03   0.04  -0.06     0.06   0.03   0.05    -0.05  -0.10   0.04
    27   1    -0.02   0.04  -0.07     0.00  -0.02   0.02    -0.06  -0.09   0.07
    28   1     0.13  -0.25   0.03    -0.14   0.10  -0.02     0.02   0.10   0.03
    29   1     0.11  -0.16  -0.06    -0.11   0.05   0.05     0.02  -0.00   0.03
    30   1     0.03  -0.17   0.07    -0.07   0.06  -0.02     0.09   0.05   0.01
    31   8     0.02  -0.04  -0.00    -0.04   0.01   0.03    -0.00  -0.03   0.04
    32   8     0.01  -0.02  -0.04     0.02  -0.01   0.04    -0.00  -0.04   0.03
    33   8    -0.01   0.01   0.00    -0.03  -0.13   0.03     0.05  -0.04  -0.06
    34  16    -0.01  -0.02   0.02     0.00  -0.04   0.02     0.04   0.01  -0.09
    35  16    -0.06  -0.00  -0.03    -0.01   0.01   0.04    -0.06  -0.04   0.04
    36  16     0.02   0.01  -0.04     0.02   0.00   0.05    -0.01  -0.05   0.02
    37   8    -0.00  -0.04   0.00     0.03   0.05   0.05    -0.02  -0.01  -0.06
    38   8    -0.01  -0.03   0.02    -0.00  -0.04   0.07     0.04   0.06  -0.13
    39   8    -0.07  -0.00  -0.03     0.06  -0.02   0.07    -0.05  -0.06   0.02
    40   8    -0.10  -0.02  -0.09    -0.06  -0.01   0.06    -0.09  -0.05   0.02
    41   8     0.02   0.01  -0.04     0.03   0.01   0.05    -0.02  -0.06   0.02
    42   8     0.00   0.03  -0.04     0.02   0.01   0.05     0.00  -0.05   0.00
    43   6     0.05   0.01  -0.04     0.03   0.00   0.04    -0.00  -0.05   0.02
    44   6    -0.10   0.07   0.04     0.02   0.06  -0.06    -0.09   0.01   0.10
    45   6    -0.03  -0.02   0.05     0.02  -0.03  -0.12     0.10  -0.00  -0.11
    46   9     0.07   0.05   0.01     0.02  -0.00   0.01    -0.02  -0.06  -0.03
    47   9     0.10  -0.01  -0.08     0.01   0.01   0.06    -0.03  -0.05   0.06
    48   9     0.00   0.00  -0.05     0.06   0.00   0.05     0.05  -0.04   0.03
    49   9    -0.09   0.06   0.20    -0.12  -0.05   0.28    -0.05   0.03   0.12
    50   9    -0.07   0.00  -0.04     0.09  -0.21  -0.39    -0.09   0.04   0.13
    51   9    -0.16   0.22  -0.00     0.11   0.48  -0.15    -0.15   0.01   0.09
    52   9    -0.01  -0.05   0.05     0.00   0.06  -0.14     0.09   0.01  -0.11
    53   9    -0.04  -0.02   0.09     0.04  -0.05  -0.20     0.14   0.03  -0.14
    54   9    -0.05   0.01   0.04     0.05  -0.11  -0.12     0.13  -0.05  -0.09
    55   1    -0.06   0.03  -0.10     0.02  -0.01   0.01    -0.09   0.05   0.08
    56   1    -0.02  -0.03  -0.07    -0.01   0.00   0.01    -0.07   0.09   0.06
                      4                      5                      6
                      A                      A                      A
 Frequencies --     30.0259                37.3750                37.8059
 Red. masses --     13.1111                 7.5879                15.1877
 Frc consts  --      0.0070                 0.0062                 0.0128
 IR Inten    --      0.4354                 0.3817                 0.7206
  Atom  AN      X      Y      Z        X      Y      Z        X      Y      Z
     1   6    -0.04  -0.04  -0.01    -0.06  -0.01   0.07    -0.02  -0.04   0.02
     2   6    -0.08  -0.04  -0.03    -0.15  -0.10   0.02     0.00  -0.03   0.03
     3   6    -0.13  -0.06  -0.06    -0.16  -0.14   0.07    -0.04  -0.05   0.01
     4   6    -0.15  -0.07  -0.07    -0.10  -0.08   0.17    -0.10  -0.07  -0.02
     5   6    -0.10  -0.06  -0.05    -0.01   0.01   0.22    -0.12  -0.08  -0.03
     6   6    -0.05  -0.04  -0.02     0.01   0.05   0.17    -0.07  -0.06  -0.01
     7   6    -0.01  -0.03   0.01    -0.06   0.02   0.03     0.00  -0.03   0.03
     8   6     0.00   0.01   0.01    -0.05   0.03   0.01     0.01  -0.01   0.01
     9   6     0.02  -0.01   0.04    -0.04   0.02   0.01     0.03  -0.02   0.04
    10   6    -0.01  -0.00   0.00    -0.05   0.02   0.01    -0.01  -0.01  -0.02
[...]
 -0.00004467,-0.00008554,0.00003595,-0.00005799,-0.00005259,0.00000008,
 -0.00003018,-0.00002707,0.00009891,0.05456250,-0.02507920,-0.04272782,
 -0.09413027,0.06113721,0.11592568,-0.00003505,-0.00005884,0.00003032,-
 0.00001008,0.00002725,0.00002449,-0.00000132,0.00003212,0.00000549,-0.
 00001665,0.00001700,-0.00002063,-0.00000104,0.00000189,-0.00000897,-0.
 00003270,0.00000398,-0.00004523,0.00040694,0.00011024,-0.00002914,-0.0
 0066428,0.00000900,-0.00015119,0.00020350,-0.00006431,-0.00014409,0.00
 442939,0.00167274,-0.00018905,0.00085888,-0.00063933,0.00048236,0.0000
 1132,-0.00000359,0.00001341,-0.00000272,0.00000247,-0.00000833,-0.0000
 0434,0.00000535,-0.00000280,-0.00000427,0.00001263,0.00000081,0.000001
 49,-0.00001035,-0.00000008,-0.00001605,0.00000095,-0.00001697,0.000010
 50,0.00067005,0.00009318,-0.00487787,0.00351211,0.00285564,-0.00414865
 ,-0.00189184,-0.00155046,-0.00036778,-0.00105505,0.00094514,-0.0000589
 1,0.00012953,-0.00035014,-0.00020740,0.00017065,-0.00061822,0.00000379
 ,-0.00011603,0.00014929,0.00000331,-0.00002348,0.00004067,0.00001187,0
 .00002646,0.00003227,-0.00000015,-0.00008908,-0.00000553,-0.00000494,0
 .00000245,-0.00001589,0.00000288,-0.00001541,0.00000233,-0.00000185,0.
 00001714,-0.00000772,0.00027182,-0.00053275,0.00039894,0.00059577,0.00
 005015,-0.00003007,0.00610873,0.00020456,0.00404002,-0.01728504,0.0071
 4887,-0.01637327,-0.00021551,0.00045861,-0.00050696,-0.00060816,-0.000
 42026,-0.00021821,0.00493700,-0.00891972,-0.00259687,-0.00490360,-0.00
 716823,0.00241609,0.00015854,-0.00011760,0.00019309,0.00008819,-0.0002
 1752,0.00010898,0.00032546,0.00022899,0.00003650,0.00019093,0.00024745
 ,0.00004486,-0.00003616,-0.00001247,0.00000917,-0.00003462,0.00044882,
 -0.00020809,-0.22902871,-0.06514235,-0.11265360,0.00006460,-0.00002742
 ,0.00000521,0.00004932,0.00003848,-0.00001358,0.00001473,0.00001250,0.
 00001429,0.00012743,-0.00028816,0.00007389,-0.00003932,-0.00011165,-0.
 00000588,-0.00000571,-0.00008613,0.00018562,0.00640590,0.00269424,-0.0
 2750301,-0.08144268,0.00860420,-0.02252501,0.31877821,0.00002324,0.000
 02554,0.00000432,0.00000429,-0.00002093,-0.00001553,0.00000228,-0.0000
 0319,0.00000182,0.00000478,-0.00000724,0.00000479,0.00000894,0.0000116
 9,0.00001374,0.00000004,-0.00000049,-0.00001657,-0.00022384,-0.0000628
 1,-0.00001445,0.00045701,0.00008439,0.00009455,-0.00008050,0.00010723,
 0.00009998,-0.00157727,-0.00189194,-0.00042757,-0.00094744,-0.00052607
 ,-0.00033742,-0.00000521,0.00000088,-0.00000077,0.00000254,-0.00000366
 ,0.00000482,0.00000016,-0.00000195,0.00000203,-0.00000310,-0.00000177,
 0.00000014,-0.00002477,0.00000923,0.00000529,-0.00001105,-0.00000405,0
 .00000960,0.00106518,0.00052561,0.00035542,0.00405448,-0.00036966,-0.0
 0144895,-0.00486343,0.00186608,-0.00066195,0.00041203,0.00086532,-0.00
 056009,0.00027552,0.00016977,0.00048475,0.00014950,-0.00011477,0.00019
 773,0.00004141,0.00004415,-0.00013692,0.00000793,0.00001218,-0.0000197
 5,-0.00005532,-0.00000328,0.00001149,-0.00001552,-0.00005713,-0.000076
 01,0.00000707,-0.00000558,0.00001245,-0.00001203,-0.00003701,0.0000096
 6,-0.00002617,-0.00000303,0.00000775,0.00006923,-0.00106880,0.00036247
 ,0.00076764,-0.00025032,-0.00039523,0.00105567,-0.00631535,0.00093304,
 -0.02244557,0.00684085,-0.01372536,-0.00014363,0.00128225,-0.00054177,
 -0.00092849,0.00010356,0.00044143,0.00588566,-0.00780132,-0.00363223,-
 0.00913422,-0.00845838,0.00269786,0.00004896,-0.00067726,0.00031413,0.
 00012579,-0.00052609,0.00011884,0.00066588,-0.00022238,-0.00033239,0.0
 0033900,0.00007615,-0.00016575,-0.00009018,0.00035631,0.00016298,0.000
 14496,0.00077417,-0.00035087,-0.06743962,-0.10369996,-0.04705353,0.000
 16431,-0.00014145,-0.00000702,0.00004313,-0.00009916,-0.00004611,0.000
 01449,-0.00009357,-0.00014299,0.00010419,-0.00049121,0.00012304,-0.000
 16575,-0.00024362,-0.00004600,-0.00004951,-0.00014697,0.00030887,0.007
 13246,0.01521324,0.00296031,0.02459711,0.01536765,0.01065724,0.0604758
 5,0.08962008,0.00000545,0.00000160,0.00001605,-0.00000327,-0.00000431,
 0.00000073,0.00000038,0.00000257,0.00000567,-0.00000173,0.00000218,-0.
 00000047,-0.00000074,0.00000487,0.00000324,-0.00001042,-0.00000068,-0.
 00001879,0.00001937,-0.00001697,0.00000423,0.00006902,0.00011297,0.000
 19673,0.00002798,0.00003761,0.00006419,-0.00006567,-0.00072308,-0.0008
 2383,0.00064649,-0.00025344,-0.00009597,0.00000416,0.00000234,0.000002
 00,0.00000228,-0.00000106,-0.00000050,0.00000009,0.00000113,-0.0000006
 7,-0.00000082,0.00000369,-0.00000047,-0.00000620,0.00000169,0.00000122
 ,-0.00002634,0.00000193,-0.00000159,-0.00013954,0.00028611,0.00027486,
 0.00185334,-0.00084708,-0.00022322,-0.00135191,-0.00033812,-0.00123329
 ,0.00016544,0.00005165,0.00015970,-0.00002752,0.00004420,0.00001427,-0
 .00018222,0.00012521,-0.00020958,0.00004398,-0.00004557,0.00002229,0.0
 0005101,-0.00001961,0.00000497,-0.00002162,0.00000530,0.00002310,-0.00
 013199,-0.00017197,0.00020770,-0.00000607,-0.00000307,-0.00000074,-0.0
 0000002,-0.00002269,0.00001795,-0.00000869,0.00000762,0.00000548,0.000
 08356,-0.00030425,0.00019559,0.00030542,-0.00011940,-0.00001521,0.0052
 4844,0.00180256,0.00344965,-0.01222635,0.00584720,-0.00531645,-0.00008
 679,0.00031447,-0.00030019,-0.00037709,0.00007225,-0.00008273,0.002385
 40,-0.00307688,0.00023157,-0.00293448,-0.00447674,0.00091960,0.0000563
 0,-0.00011324,0.00015222,0.00004269,-0.00012773,0.00006414,0.00017677,
 -0.00001907,0.00005408,0.00012372,0.00001101,0.00000310,-0.00003860,0.
 00010694,0.00001570,0.00001089,0.00018079,-0.00014673,-0.11341834,-0.0
 4560183,-0.15097704,0.00007051,-0.00004821,0.00000284,0.00000475,-0.00
 002493,0.00000422,0.00001037,-0.00001969,-0.00001361,0.00005966,-0.000
 12176,0.00004889,-0.00002212,-0.00005062,0.00000971,-0.00001133,-0.000
 04233,0.00012531,-0.04292359,-0.00817483,-0.07402975,-0.01109840,0.005
 98017,0.01352433,0.17360530,0.04977215,0.21368548,0.00155554,0.0026025
 9,0.00164901,-0.00003167,-0.00000648,0.00017067,0.00001221,0.00014515,
 0.00004323,-0.00006051,0.00006561,-0.00010944,-0.00009414,0.00013337,0
 .00026128,-0.00056245,0.00055545,-0.00063722,-0.00040543,0.01332105,-0
 .01331894,-0.00415860,-0.02310042,0.01727390,-0.03547112,-0.00283566,-
 0.00022418,0.00115378,-0.00005413,0.00359302,0.00043849,-0.00244210,-0
 .00610927,0.00012489,-0.00013109,0.00017195,-0.00001949,0.00002000,-0.
 00003533,-0.00001535,0.00001939,-0.00000663,-0.00003496,0.00008678,-0.
 00003200,0.00004585,0.00002310,0.00000558,-0.00090501,-0.00208255,-0.0
 0034904,-0.00257791,-0.00084934,0.00144189,0.00023300,0.00003530,0.000
 09213,0.00059285,0.00033348,0.00064109,-0.00031956,0.00008186,-0.00145
 243,0.00036866,0.00028890,0.00138037,-0.00015237,0.00044885,-0.0005422
 7,0.00013403,0.00009256,-0.00033506,-0.00000269,-0.00003051,-0.0000009
 4,0.00010384,-0.00001047,0.00015629,0.00004251,-0.00002199,0.00003118,
 -0.00000485,-0.00001704,0.00005208,0.00000858,-0.00003051,0.00002403,-
 0.00003697,-0.00004171,0.00005340,-0.00004964,-0.00008853,-0.00000832,
 0.00002585,-0.00001386,-0.00010800,-0.00022255,0.00007938,-0.00007138,
 0.00016305,-0.00011829,0.00011685,0.00005770,0.00017003,0.00003524,-0.
 00013979,-0.00003344,0.00032806,-0.00007284,0.00006219,-0.00004389,-0.
 00006486,0.00002702,-0.00002059,-0.00008335,-0.00016162,-0.00000984,0.
 00000084,-0.00006570,-0.00000603,0.00008029,-0.00014769,-0.00026614,0.
 00007524,0.00005699,-0.00004650,-0.00004386,0.00008162,-0.00000732,0.0
 0005756,0.00001442,-0.00003325,-0.00003652,-0.00010904,0.00000942,0.00
 003636,-0.00002283,0.00000741,0.00000520,-0.00001498,-0.00000277,0.000
 00421,-0.00002974,-0.00003131,-0.00001669,-0.00000209,0.00000581,-0.00
 003214,-0.00002013,-0.00000349,-0.00001266,-0.00000660,0.00002113,0.00
 001914,0.00003512,-0.00002906,-0.00000576,0.00003453,0.00000376,0.0000
 1992,0.00004477,0.00000944,0.03974717,-0.00236825,-0.00080039,-0.00179
 973,-0.00006591,0.00008036,-0.00024561,0.00004090,-0.00002326,0.000076
 37,0.00002771,0.00002300,0.00008740,0.00002894,-0.00000295,-0.00027734
 ,0.00050924,-0.00053777,0.00048294,-0.00023077,-0.01400297,0.01086705,
 -0.00190525,-0.00548614,0.00164589,-0.00712757,-0.24249148,0.15014351,
 -0.00091076,-0.00104729,0.00268150,0.00099807,-0.00013836,-0.00211552,
 0.00006603,0.00000146,0.00011201,0.00000678,-0.00001255,0.00001408,0.0
 0000292,0.00000104,0.00001323,0.00001687,-0.00005525,0.00003646,-0.000
 05686,0.00000626,0.00002459,0.00096166,0.00155428,0.00049051,-0.000276
 23,-0.00005550,0.00010811,0.00038067,0.00015836,-0.00030922,0.00012652
 ,-0.00001438,0.00012980,0.00136991,0.00041706,0.00050705,0.00038237,0.
 00041898,0.00011054,-0.00000908,0.00024964,-0.00053536,0.00003778,-0.0
 0000873,0.00008923,-0.00001876,-0.00001971,0.00002038,0.00006742,0.000
 01697,0.00008192,0.00006641,-0.00000175,0.00007597,-0.00000191,-0.0000
 0417,0.00000279,0.00001568,0.00001017,-0.00001239,0.00000771,0.0000175
 4,-0.00000994,-0.00001030,-0.00000919,-0.00000312,-0.00001314,0.000023
 11,-0.00004592,-0.00003719,0.00001088,-0.00001806,0.00001409,-0.000010
 15,0.00003604,0.00001749,0.00002683,0.00001241,0.00000876,-0.00003729,
 0.00024248,-0.00000164,0.00000862,-0.00001497,-0.00000978,0.00000134,-
 0.00000606,-0.00002037,-0.00002408,-0.00000509,-0.00000302,-0.00001003
 ,-0.00000214,-0.00006958,-0.00006003,-0.00011924,0.00003818,0.00006704
 ,-0.00004102,0.00000919,0.00001547,0.00000554,0.00001298,0.00000335,-0
 .00000486,-0.00000142,0.00000164,0.00001837,-0.00000454,-0.00000174,-0
 .00000447,0.00000149,0.00000396,-0.00000366,-0.00000120,-0.00000909,-0
 .00001770,-0.00000373,0.00000010,0.00000101,-0.00000690,-0.00000453,-0
 .00000111,-0.00000266,-0.00000113,0.00000305,0.00000608,0.00000147,-0.
 00001162,-0.00000044,0.00000021,-0.00000235,-0.00000031,-0.00000559,-0
 .00000727,0.00720739,0.25367159,-0.00133080,-0.00148575,-0.00132564,-0
 .00012091,0.00000005,-0.00023300,0.00010744,0.00000511,0.00010867,0.00
 002012,0.00004710,0.00008570,0.00000859,0.00001011,-0.00022578,0.00048
 494,-0.00049156,0.00030139,0.00031520,-0.01269159,0.00985521,-0.001915
 68,-0.00222941,-0.00087201,0.00220284,0.15578306,-0.16361913,-0.000618
 53,-0.00029091,0.00135383,-0.00000598,-0.00034682,-0.00182743,0.000097
 16,0.00002936,0.00024893,-0.00000165,-0.00000353,0.00000659,-0.0000042
 4,0.00000755,0.00001511,0.00000849,-0.00004489,0.00002657,-0.00003830,
 0.00000767,0.00001427,0.00055379,0.00047737,0.00051362,-0.00017065,0.0
 0016126,0.00011452,-0.00013064,-0.00017771,-0.00029067,0.00004740,0.00
 006115,0.00002805,-0.00160281,-0.00093886,-0.00240525,0.00094139,0.000
 81202,-0.00015696,-0.00019938,0.00017081,-0.00034222,0.00000957,-0.000
 04237,0.00034934,-0.00000544,-0.00000936,-0.00000285,0.00005817,-0.000
 01799,0.00008434,0.00003582,-0.00001133,0.00003549,-0.00000452,-0.0000
 0191,-0.00001074,0.00003398,0.00002664,-0.00002679,0.00002943,0.000041
 74,-0.00004799,-0.00000593,-0.00000757,-0.00000179,0.00001086,-0.00000
 675,-0.00004526,-0.00003533,-0.00000914,-0.00000821,0.00002055,0.00000
 944,0.00003346,0.00000353,0.00001377,0.00000266,-0.00005752,-0.0000424
 0,0.00017892,0.00000030,-0.00000370,-0.00001506,-0.00001320,-0.0000035
 4,-0.00000534,-0.00000439,-0.00000843,0.00000024,0.,-0.00000491,-0.000
 00084,-0.00003787,-0.00005049,-0.00008372,0.00005484,0.00007255,-0.000
 03179,0.00000867,0.00000028,0.00000212,0.00000337,0.00000497,0.0000007
 6,0.00003766,0.00001026,0.00004584,-0.00000279,0.00000041,-0.00000270,
 0.00000370,0.00000979,-0.00000398,-0.00000079,-0.00000346,-0.00001002,
 -0.00000032,-0.00000278,0.,-0.00000255,-0.00000280,-0.00000128,-0.0000
 0064,-0.00000110,0.00000032,0.00000152,0.00000104,-0.00001995,-0.00000
 907,-0.00000005,-0.00000505,-0.00002461,-0.00001457,-0.00001985,-0.001
 09713,-0.15761820,0.16560689,-0.00098614,-0.00231971,-0.00151348,-0.00
 018454,0.00106858,0.00048030,-0.00014865,-0.00011764,-0.00016852,0.000
 00252,0.00000987,0.00001156,-0.00001279,-0.00011838,-0.00010485,0.0001
 3433,-0.00012427,0.00019773,0.00419912,0.00002613,0.01981186,-0.009154
 47,-0.00493706,-0.02722368,-0.05244839,-0.01161710,-0.07191030,0.00120
 781,-0.00546206,0.00228316,0.00002627,0.00176385,-0.00150704,-0.000847
 33,0.00110737,-0.00117848,0.00000084,0.00001613,-0.00000272,0.00002448
 ,-0.00000290,-0.00002322,0.00001352,-0.00001673,0.00000887,0.00001622,
 -0.00009969,-0.00002946,0.00137759,0.00384326,0.00076727,0.00098599,0.
 00062938,-0.00002638,-0.00265344,0.00017327,-0.00083373,0.00025545,0.0
 0066125,-0.00048789,-0.00015235,0.00107773,-0.00099473,-0.00057433,-0.
 00045750,0.00082626,0.00020532,-0.00021590,0.00032878,0.00002869,-0.00
 008265,0.00082782,-0.00001238,0.00001973,-0.00004573,-0.00006614,0.000
 01316,-0.00007603,-0.00000249,-0.00000053,-0.00005227,-0.00000790,-0.0
 0002359,-0.00002899,0.00005131,0.00004185,-0.00006773,0.00006427,0.000
 11707,-0.00012992,-0.00002638,-0.00007702,0.00002461,0.00009406,-0.000
 11160,-0.00009095,-0.00005343,0.00000389,0.00007561,0.00017955,-0.0000
 3672,-0.00013580,0.00000037,0.00005854,-0.00006581,-0.00033293,0.00014
 567,0.00028391,-0.00015382,-0.00001392,0.00005555,-0.00005579,0.000009
 55,0.00002589,0.00000641,-0.00002592,0.00005386,0.00000386,-0.00001479
 ,0.00001172,0.00003374,-0.00018947,-0.00007158,0.00022427,0.00009184,0
 .00004283,-0.00000134,0.00005167,-0.00000059,0.00001666,0.00000671,-0.
 00001542,0.00009726,-0.00009435,-0.00007781,0.00002003,-0.00001876,0.0
 0000209,0.00000297,-0.00000387,-0.00000262,0.00000067,-0.00001696,-0.0
 0001890,-0.00000404,-0.00000380,0.00000458,-0.00000495,-0.00000295,0.0
 0000099,-0.00000513,-0.00000280,0.00001596,-0.00003811,0.00002096,0.00
 002799,-0.00003307,0.00003872,0.00001933,-0.00002486,0.00004711,0.0000
 3962,0.00052701,0.00072836,0.00234233,0.05818459,0.00053325,0.00219524
 ,0.00050221,-0.00018215,-0.00097615,-0.00060869,0.00009708,0.00014035,
 0.00037645,0.00000725,0.00011164,0.00002337,-0.00007476,0.00018177,0.0
 0000474,-0.00008435,0.00000203,-0.00011734,-0.00682834,-0.00186979,-0.
 02112380,-0.00253697,-0.00363293,-0.00690956,-0.01214033,-0.05412253,-
 0.04069152,0.00141736,-0.00286372,0.00149342,-0.00186763,0.00090848,-0
 .00196935,0.00111654,-0.00094391,0.00119521,-0.00000141,0.00000572,-0.
 00002327,-0.00001723,0.00004199,0.00002409,-0.00001458,0.00002571,0.00
 000185,-0.00002565,0.00012592,0.00005702,-0.00124680,-0.00304021,-0.00
 018322,0.00059924,0.00009248,0.00029023,-0.00051997,0.00015763,-0.0000
 5479,0.00012827,0.00014646,-0.00025161,0.00085707,0.00100567,0.0002602
 0,-0.00008550,-0.00129206,0.00088729,-0.00002460,0.00017599,-0.0001430
 5,0.00003437,-0.00024787,0.00071482,-0.00000469,-0.00000285,-0.0000050
 6,0.00004417,-0.00000478,0.00005095,0.00002182,0.00000135,-0.00000449,
 -0.00001723,0.00000048,-0.00001961,0.00006122,0.00007298,-0.00009825,0
 .00004747,0.00008837,-0.00008690,-0.00001592,-0.00003461,0.00002521,-0
 .00007097,-0.00003653,-0.00001127,-0.00001637,-0.00000827,0.00002657,0
 .00005361,0.00000780,-0.00002633,-0.00000784,0.00003505,-0.00004540,0.
 00025954,0.00029500,0.00003982,-0.00003454,-0.00000625,0.00001058,-0.0
 0001972,-0.00000293,0.00000632,0.00000380,-0.00001234,0.00002967,0.000
 00589,-0.00001190,0.00000796,-0.00012282,-0.00016412,0.00002662,-0.000
 17464,-0.00024163,-0.00015036,-0.00005069,0.00010064,0.00003498,0.0000
 0488,0.00000775,-0.00000578,0.00005372,-0.00000888,0.00001357,0.000036
 40,-0.00003118,0.00000216,-0.00000925,-0.00005274,0.00000606,0.0000053
 7,-0.00002393,-0.00002820,0.00000052,-0.00000480,0.00000168,-0.0000016
 1,-0.00000233,0.00000015,-0.00000183,-0.00000264,0.00000816,-0.0000101
 1,0.00000389,-0.00000549,-0.00001414,0.00000706,0.00000069,-0.00002487
 ,-0.00000036,-0.00000374,0.00642166,0.00808476,0.01880038,0.01443699,0
 .05562006,-0.00066453,0.00136271,-0.00054199,-0.00002454,0.00093133,0.
 00033960,0.00001889,0.00007993,0.00015406,-0.00001955,0.00006991,0.000
 00269,-0.00002092,0.00002017,-0.00002082,-0.00001279,-0.00000489,-0.00
 007281,-0.00083291,-0.00170143,-0.00731158,0.00141588,0.00060820,0.003
 88544,-0.07633059,-0.04668774,-0.33198470,0.00047374,0.00154144,-0.000
 59983,-0.00033033,-0.00050209,-0.00073557,-0.00060272,0.00055385,-0.00
 035594,-0.00000264,-0.00001538,0.00000512,0.00000512,0.00001083,-0.000
 00170,0.00000411,-0.00000098,0.00000094,0.00000034,0.00000069,0.000032
 62,-0.00098059,-0.00120430,0.00058208,0.00003290,0.00007717,0.00006151
 ,0.00070036,-0.00022922,0.00016880,-0.00007026,-0.00017417,0.00003488,
 -0.00045420,-0.00038852,0.00008271,0.00185184,0.00288937,-0.00164531,0
 .00001557,-0.00006821,0.00005071,0.00019372,-0.00000731,-0.00003564,0.
 00000117,0.00000074,0.00000431,-0.00000937,0.00000608,-0.00001402,-0.0
 0000977,0.00000143,0.00000554,-0.00001242,0.00000674,-0.00002027,0.000
 00870,0.00001815,-0.00001953,-0.00001410,-0.00000857,0.00004112,0.0000
 0593,0.00001980,-0.00000257,-0.00003451,0.00001871,0.00002589,0.000023
 32,0.00000228,-0.00000886,-0.00004162,0.00000157,0.00001159,0.00000040
 ,-0.00001951,0.00000812,0.00013064,0.00002852,-0.00006875,0.00002834,0
 .00000553,-0.00000321,0.00001669,-0.00000009,-0.00000310,0.00000187,0.
 00001602,-0.00000888,-0.00000187,0.00000727,-0.00000130,-0.00003560,0.
 00004008,0.00002722,-0.00008689,-0.00005977,-0.00001304,-0.00000276,0.
 00000641,0.00001060,-0.00000446,-0.00000355,0.00000579,-0.00003637,0.0
 0001230,-0.00000030,-0.00000205,-0.00000046,-0.00000207,-0.00000414,-0
 .00000849,0.00000152,-0.00000018,0.00000037,-0.00000131,0.00000080,0.0
 0000211,-0.00000132,0.00000220,0.00000176,-0.00000021,0.00000113,0.000
 00119,-0.00000445,0.00000819,-0.00000403,0.00000119,0.00001090,-0.0000
 0748,-0.00000254,0.00001625,-0.00000286,-0.00000010,-0.00264044,-0.004
 88826,-0.00737155,0.07831414,0.04764464,0.34530921\\-0.00000074,-0.000
 00817,0.00000020,0.00000278,-0.00000673,-0.00000623,-0.00000109,-0.000
 00245,-0.00000365,-0.00000213,-0.00000883,-0.00000423,0.00000271,-0.00
 000928,0.00000241,-0.00000791,0.00001066,-0.00000206,-0.00000430,-0.00
 000310,-0.00000638,0.00001825,0.00000481,-0.00000652,-0.00000378,-0.00
 000768,0.00001028,-0.00004490,-0.00001128,-0.00000622,-0.00001620,-0.0
 0000813,0.00000073,0.00000433,-0.00000516,0.00000117,0.00000163,-0.000
 00659,-0.00000267,-0.00000213,-0.00000721,-0.00000377,-0.00000573,-0.0
 0000463,-0.00000564,0.00000612,-0.00002114,0.00000757,0.00000357,-0.00
 000376,-0.00000177,0.00001318,0.00001833,-0.00000609,0.00004478,-0.000
 00272,0.00001010,-0.00003151,-0.00002698,-0.00000740,0.00000754,0.0000
 1203,-0.00000049,0.00001172,0.00000107,0.00000219,0.00000341,-0.000002
 60,0.00000169,-0.00000021,-0.00000448,-0.00000037,0.00000199,0.0000015
 3,0.00000119,-0.00000014,0.00000246,0.00000140,0.00000359,0.00000548,0
 .00000172,0.00000285,-0.00000133,-0.00000133,0.00000246,-0.00000174,0.
 00000007,0.00000091,-0.00000321,-0.00000221,0.00001019,0.00003367,-0.0
 0002229,-0.00000133,0.00000525,-0.00000865,-0.00001020,0.00001180,-0.0
 0001123,0.00000414,-0.00000646,0.00002044,0.00002519,-0.00000031,0.000
 04727,-0.00000576,0.00000539,-0.00000361,0.00000870,0.00001632,0.00000
 824,0.00000903,0.00000481,0.00000356,-0.00000420,-0.00001177,-0.000011
 60,-0.00001262,-0.00000002,0.00000026,0.00000674,-0.00000835,0.0000092
 1,-0.00001007,0.00001190,-0.00001036,-0.00001634,-0.00000278,-0.000012
 70,-0.00003704,0.00002759,-0.00000310,0.00000953,0.00000818,0.00000221
 ,0.00000503,-0.00000317,0.00000064,-0.00001010,0.00000244,0.00000193,-
 0.00000463,-0.00000091,0.00000683,0.00000288,-0.00001074,0.00000162,0.
 00000187,0.00000845,0.00000071,0.00000539,-0.00000112,0.00000775,-0.00
 000109,0.00000634,0.00000236,0.00000635,0.00000891,0.00000261,-0.00000
 296,-0.00000014,-0.00000165,0.00000493,-0.00000326,-0.00000254,0.00000
 532,-0.00000117,-0.00000162\\\@


 One man practicing sportsmanship is far better than 50 preaching it.
 -- Knute K. Rockne
 Job cpu time:       0 days 22 hours 22 minutes 43.3 seconds.
 Elapsed time:       0 days  0 hours 56 minutes 17.3 seconds.
 File lengths (MBytes):  RWF=   4024 Int=      0 D2E=      0 Chk=     48 Scr=      8
 Normal termination of Gaussian 16 at Tue Jan 28 16:56:06 2025.
