 Entering Gaussian System, Link 0=/sysapps/ubuntu-applications/gaussian-new/avx/g16//g16
 Input=i3-maj.in
 Output=i3-maj.log
 Initial command:
 /sysapps/ubuntu-applications/gaussian-new/avx/g16/l1.exe "/data/temp-scratch/selhajj1/308673/Gau-2872914.inp" -scrdir="/data/temp-scratch/selhajj1/308673/"
 Entering Link 1 = /sysapps/ubuntu-applications/gaussian-new/avx/g16/l1.exe PID=   2872916.
  
 Copyright (c) 1988,1990,1992,1993,1995,1998,2003,2009,2016,
            Gaussian, Inc.  All Rights Reserved.
  
 This is part of the Gaussian(R) 16 program.  It is based on
 the Gaussian(R) 09 system (copyright 2009, Gaussian, Inc.),
 the Gaussian(R) 03 system (copyright 2003, Gaussian, Inc.),
 the Gaussian(R) 98 system (copyright 1998, Gaussian, Inc.),
 the Gaussian(R) 94 system (copyright 1995, Gaussian, Inc.),
 the Gaussian 92(TM) system (copyright 1992, Gaussian, Inc.),
 the Gaussian 90(TM) system (copyright 1990, Gaussian, Inc.),
 the Gaussian 88(TM) system (copyright 1988, Gaussian, Inc.),
 the Gaussian 86(TM) system (copyright 1986, Carnegie Mellon
 University), and the Gaussian 82(TM) system (copyright 1983,
 Carnegie Mellon University). Gaussian is a federally registered
 trademark of Gaussian, Inc.
  
 This software contains proprietary and confidential information,
 including trade secrets, belonging to Gaussian, Inc.
  
 This software is provided under written license and may be
 used, copied, transmitted, or stored only in accord with that
 written license.
  
 The following legend is applicable only to US Government
 contracts under FAR:
  
                    RESTRICTED RIGHTS LEGEND
  
 Use, reproduction and disclosure by the US Government is
 subject to restrictions as set forth in subparagraphs (a)
 and (c) of the Commercial Computer Software - Restricted
 Rights clause in FAR 52.227-19.
  
 Gaussian, Inc.
 340 Quinnipiac St., Bldg. 40, Wallingford CT 06492
  
  
 ---------------------------------------------------------------
 Warning -- This program may not be used in any manner that
 competes with the business of Gaussian, Inc. or will provide
 assistance to any competitor of Gaussian, Inc.  The licensee
 of this program is prohibited from giving any competitor of
 Gaussian, Inc. access to this program.  By using this program,
 the user acknowledges that Gaussian, Inc. is engaged in the
 business of creating and licensing software in the field of
 computational chemistry and represents and warrants to the
 licensee that it is not a competitor of Gaussian, Inc. and that
 it will not use this program in any manner prohibited above.
 ---------------------------------------------------------------
  

 Cite this work as:
 Gaussian 16, Revision A.03,
 M. J. Frisch, G. W. Trucks, H. B. Schlegel, G. E. Scuseria, 
 M. A. Robb, J. R. Cheeseman, G. Scalmani, V. Barone, 
 G. A. Petersson, H. Nakatsuji, X. Li, M. Caricato, A. V. Marenich, 
 J. Bloino, B. G. Janesko, R. Gomperts, B. Mennucci, H. P. Hratchian, 
 J. V. Ortiz, A. F. Izmaylov, J. L. Sonnenberg, D. Williams-Young, 
 F. Ding, F. Lipparini, F. Egidi, J. Goings, B. Peng, A. Petrone, 
 T. Henderson, D. Ranasinghe, V. G. Zakrzewski, J. Gao, N. Rega, 
 G. Zheng, W. Liang, M. Hada, M. Ehara, K. Toyota, R. Fukuda, 
 J. Hasegawa, M. Ishida, T. Nakajima, Y. Honda, O. Kitao, H. Nakai, 
 T. Vreven, K. Throssell, J. A. Montgomery, Jr., J. E. Peralta, 
 F. Ogliaro, M. J. Bearpark, J. J. Heyd, E. N. Brothers, K. N. Kudin, 
 V. N. Staroverov, T. A. Keith, R. Kobayashi, J. Normand, 
 K. Raghavachari, A. P. Rendell, J. C. Burant, S. S. Iyengar, 
 J. Tomasi, M. Cossi, J. M. Millam, M. Klene, C. Adamo, R. Cammi, 
 J. W. Ochterski, R. L. Martin, K. Morokuma, O. Farkas, 
 J. B. Foresman, and D. J. Fox, Gaussian, Inc., Wallingford CT, 2016.
 
 ******************************************
 Gaussian 16:  ES64L-G16RevA.03 25-Dec-2016
                 1-May-2025 
 ******************************************
 %chk=i3-maj.chk
 %mem=616Gb
 %nprocshared=24
 Will use up to   24 processors via shared memory.
 ----------------------------------------------------------------------
 #P UMN15/genecp scf=(maxcyc=500) freq scrf=(smd,solvent=DiChloroEthane
 )
 ----------------------------------------------------------------------
 1/10=4,30=1,38=1/1,3;
 2/12=2,17=6,18=5,40=1/2;
 3/5=7,11=2,16=1,17=8,25=1,30=1,70=32201,71=2,72=10,74=-73,116=2,140=1/1,2,3;
 4//1;
 5/5=2,7=500,38=5,53=10,98=1/2;
 8/6=4,10=90,11=11/1;
 11/6=1,8=1,9=11,15=111,16=1/1,2,10;
 10/6=1/2;
 6/7=2,8=2,9=2,10=2,28=1/1;
 7/8=1,10=1,25=1/1,2,3,16;
 1/10=4,30=1/3;
 99//99;
 Leave Link    1 at Thu May  1 23:50:25 2025, MaxMem= 82678120448 cpu:               9.6 elap:               0.5
 (Enter /sysapps/ubuntu-applications/gaussian-new/avx/g16/l101.exe)
 ----
 freq
 ----
 Symbolic Z-matrix:
 Charge =  0 Multiplicity = 1
 C                     5.85762  -0.69526   0.33413 
 C                     6.96382  -0.84116  -0.51215 
 C                     8.05741  -1.60732  -0.10712 
 C                     8.04552  -2.23686   1.14011 
 C                     6.9394   -2.09824   1.98241 
 C                     5.84619  -1.32753   1.58408 
 C                     2.27627   0.32527   0.3343 
 C                     1.60246  -0.00888  -0.996 
 C                     1.40468  -0.11378   1.51392 
 H                     6.96354  -0.35437  -1.49158 
 H                     8.91706  -1.71898  -0.77116 
 H                     8.8993   -2.84111   1.45485 
 H                     6.92623  -2.59312   2.95579 
 H                     4.97909  -1.21834   2.23903 
 O                     0.1965    0.11689   1.50075 
 O                     0.41664   0.2921   -1.15355 
 O                    -2.98352   0.69922   1.57825 
 O                    -2.76663   0.8239   -1.62689 
 O                    -0.2237   -2.16764  -0.10731 
 S                    -1.26657  -2.92524  -0.86521 
 S                    -3.30921  -0.58614   2.28231 
 S                    -2.51882   2.26472  -1.27872 
 O                    -2.32513  -1.91447  -1.18869 
 O                    -1.68333  -4.20262  -0.35309 
 O                    -2.3735   -1.58198   1.67902 
 O                    -3.45381  -0.55542   3.71103 
 O                    -1.55597   2.21816  -0.14218 
 O                    -2.22895   3.16791  -2.36233 
 C                    -4.12767   2.8487   -0.53402 
 C                    -4.94726  -1.01827   1.56373 
 C                    -0.48569  -3.26392  -2.50361 
 F                    -3.8672    3.52928   0.56297 
 F                    -4.90058   1.81966  -0.24993 
 F                    -4.73415   3.62653  -1.40809 
 F                    -4.81953  -1.0531    0.24646 
 F                    -5.82649  -0.09664   1.90109 
 F                    -5.3357   -2.19588   2.00622 
 F                    -0.44516  -2.14635  -3.21102 
 F                    -1.19653  -4.16692  -3.14585 
 F                     0.74238  -3.71119  -2.31595 
 C                     4.7101    0.1766   -0.09927 
 H                     4.65065   0.19293  -1.1995 
 C                     4.86741   1.67738   0.30645 
 C                     6.02332   2.2782   -0.38326 
 C                     5.05628   1.77378   1.76941 
 C                     1.30459   2.76789   0.21926 
 C                     2.44687   3.03166  -1.88049 
 C                     1.30158   3.28567  -1.02199 
 H                     0.48434   2.91209   0.92166 
 H                     2.4126    3.25259  -2.95027 
 H                     0.45988   3.86764  -1.4013 
 N                     6.95369   2.70781  -0.91898 
 N                     5.17206   1.78957   2.92044 
 N                     3.63833   2.37378  -0.07374 
 N                     3.57092   2.59064  -1.41843 
 C                     2.46029   1.90862   0.61163 
 H                     2.65238   1.97624   1.69437 
 Lu                   -1.50481  -0.1408    0.02049 
 O                     3.51998  -0.30446   0.49086 
 C                     2.08619  -0.7222    2.67672 
 H                     2.52103  -1.68315   2.35582 
 H                     2.93374  -0.08806   2.98672 
 H                     1.3725   -0.86826   3.49442 
 C                     2.36086  -0.73833  -2.04399 
 H                     3.08154  -0.05647  -2.52357 
 H                     2.92663  -1.56736  -1.59397 
 H                     1.66619  -1.09467  -2.81071 
 
 ITRead=  0  0  0  0  0  0  0  0  0  0  0  0  0  0  0  0  0  0  0  0
 ITRead=  0  0  0  0  0  0  0  0  0  0  0  0  0  0  0  0  0  0  0  0
 ITRead=  0  0  0  0  0  0  0  0  0  0  0  0  0  0  0  0  0  0  0  0
 ITRead=  0  0  0  0  0  0  0
 MicOpt= -1 -1 -1 -1 -1 -1 -1 -1 -1 -1 -1 -1 -1 -1 -1 -1 -1 -1 -1 -1
 MicOpt= -1 -1 -1 -1 -1 -1 -1 -1 -1 -1 -1 -1 -1 -1 -1 -1 -1 -1 -1 -1
 MicOpt= -1 -1 -1 -1 -1 -1 -1 -1 -1 -1 -1 -1 -1 -1 -1 -1 -1 -1 -1 -1
 MicOpt= -1 -1 -1 -1 -1 -1 -1
 NAtoms=     67 NQM=       67 NQMF=       0 NMMI=      0 NMMIF=      0
                NMic=       0 NMicF=      0.
                    Isotopes and Nuclear Properties:
 (Nuclear quadrupole moments (NQMom) in fm**2, nuclear magnetic moments (NMagM)
  in nuclear magnetons)

  Atom         1           2           3           4           5           6           7           8           9          10
 IAtWgt=          12          12          12          12          12          12          12          12          12           1
 AtmWgt=  12.0000000  12.0000000  12.0000000  12.0000000  12.0000000  12.0000000  12.0000000  12.0000000  12.0000000   1.0078250
 NucSpn=           0           0           0           0           0           0           0           0           0           1
 AtZEff=  -0.0000000  -0.0000000  -0.0000000  -0.0000000  -0.0000000  -0.0000000  -0.0000000  -0.0000000  -0.0000000  -0.0000000
 NQMom=    0.0000000   0.0000000   0.0000000   0.0000000   0.0000000   0.0000000   0.0000000   0.0000000   0.0000000   0.0000000
 NMagM=    0.0000000   0.0000000   0.0000000   0.0000000   0.0000000   0.0000000   0.0000000   0.0000000   0.0000000   2.7928460
 AtZNuc=   6.0000000   6.0000000   6.0000000   6.0000000   6.0000000   6.0000000   6.0000000   6.0000000   6.0000000   1.0000000

  Atom        11          12          13          14          15          16          17          18          19          20
 IAtWgt=           1           1           1           1          16          16          16          16          16          32
 AtmWgt=   1.0078250   1.0078250   1.0078250   1.0078250  15.9949146  15.9949146  15.9949146  15.9949146  15.9949146  31.9720718
 NucSpn=           1           1           1           1           0           0           0           0           0           0
 AtZEff=  -0.0000000  -0.0000000  -0.0000000  -0.0000000  -0.0000000  -0.0000000  -0.0000000  -0.0000000  -0.0000000  -0.0000000
 NQMom=    0.0000000   0.0000000   0.0000000   0.0000000   0.0000000   0.0000000   0.0000000   0.0000000   0.0000000   0.0000000
 NMagM=    2.7928460   2.7928460   2.7928460   2.7928460   0.0000000   0.0000000   0.0000000   0.0000000   0.0000000   0.0000000
 AtZNuc=   1.0000000   1.0000000   1.0000000   1.0000000   8.0000000   8.0000000   8.0000000   8.0000000   8.0000000  16.0000000

  Atom        21          22          23          24          25          26          27          28          29          30
 IAtWgt=          32          32          16          16          16          16          16          16          12          12
 AtmWgt=  31.9720718  31.9720718  15.9949146  15.9949146  15.9949146  15.9949146  15.9949146  15.9949146  12.0000000  12.0000000
 NucSpn=           0           0           0           0           0           0           0           0           0           0
 AtZEff=  -0.0000000  -0.0000000  -0.0000000  -0.0000000  -0.0000000  -0.0000000  -0.0000000  -0.0000000  -0.0000000  -0.0000000
 NQMom=    0.0000000   0.0000000   0.0000000   0.0000000   0.0000000   0.0000000   0.0000000   0.0000000   0.0000000   0.0000000
 NMagM=    0.0000000   0.0000000   0.0000000   0.0000000   0.0000000   0.0000000   0.0000000   0.0000000   0.0000000   0.0000000
 AtZNuc=  16.0000000  16.0000000   8.0000000   8.0000000   8.0000000   8.0000000   8.0000000   8.0000000   6.0000000   6.0000000

  Atom        31          32          33          34          35          36          37          38          39          40
 IAtWgt=          12          19          19          19          19          19          19          19          19          19
 AtmWgt=  12.0000000  18.9984032  18.9984032  18.9984032  18.9984032  18.9984032  18.9984032  18.9984032  18.9984032  18.9984032
 NucSpn=           0           1           1           1           1           1           1           1           1           1
 AtZEff=  -0.0000000  -0.0000000  -0.0000000  -0.0000000  -0.0000000  -0.0000000  -0.0000000  -0.0000000  -0.0000000  -0.0000000
 NQMom=    0.0000000   0.0000000   0.0000000   0.0000000   0.0000000   0.0000000   0.0000000   0.0000000   0.0000000   0.0000000
 NMagM=    0.0000000   2.6288670   2.6288670   2.6288670   2.6288670   2.6288670   2.6288670   2.6288670   2.6288670   2.6288670
 AtZNuc=   6.0000000   9.0000000   9.0000000   9.0000000   9.0000000   9.0000000   9.0000000   9.0000000   9.0000000   9.0000000

  Atom        41          42          43          44          45          46          47          48          49          50
 IAtWgt=          12           1          12          12          12          12          12          12           1           1
 AtmWgt=  12.0000000   1.0078250  12.0000000  12.0000000  12.0000000  12.0000000  12.0000000  12.0000000   1.0078250   1.0078250
 NucSpn=           0           1           0           0           0           0           0           0           1           1
 AtZEff=  -0.0000000  -0.0000000  -0.0000000  -0.0000000  -0.0000000  -0.0000000  -0.0000000  -0.0000000  -0.0000000  -0.0000000
 NQMom=    0.0000000   0.0000000   0.0000000   0.0000000   0.0000000   0.0000000   0.0000000   0.0000000   0.0000000   0.0000000
 NMagM=    0.0000000   2.7928460   0.0000000   0.0000000   0.0000000   0.0000000   0.0000000   0.0000000   2.7928460   2.7928460
 AtZNuc=   6.0000000   1.0000000   6.0000000   6.0000000   6.0000000   6.0000000   6.0000000   6.0000000   1.0000000   1.0000000

  Atom        51          52          53          54          55          56          57          58          59          60
 IAtWgt=           1          14          14          14          14          12           1         175          16          12
 AtmWgt=   1.0078250  14.0030740  14.0030740  14.0030740  14.0030740  12.0000000   1.0078250 174.9409000  15.9949146  12.0000000
 NucSpn=           1           2           2           2           2           0           1           7           0           0
 AtZEff=  -0.0000000  -0.0000000  -0.0000000  -0.0000000  -0.0000000  -0.0000000  -0.0000000  -0.0000000  -0.0000000  -0.0000000
 NQMom=    0.0000000   2.0440000   2.0440000   2.0440000   2.0440000   0.0000000   0.0000000 349.0000000   0.0000000   0.0000000
 NMagM=    2.7928460   0.4037610   0.4037610   0.4037610   0.4037610   0.0000000   2.7928460   2.2327000   0.0000000   0.0000000
 AtZNuc=   1.0000000   7.0000000   7.0000000   7.0000000   7.0000000   6.0000000   1.0000000  71.0000000   8.0000000   6.0000000

  Atom        61          62          63          64          65          66          67
 IAtWgt=           1           1           1          12           1           1           1
 AtmWgt=   1.0078250   1.0078250   1.0078250  12.0000000   1.0078250   1.0078250   1.0078250
 NucSpn=           1           1           1           0           1           1           1
 AtZEff=  -0.0000000  -0.0000000  -0.0000000  -0.0000000  -0.0000000  -0.0000000  -0.0000000
 NQMom=    0.0000000   0.0000000   0.0000000   0.0000000   0.0000000   0.0000000   0.0000000
 NMagM=    2.7928460   2.7928460   2.7928460   0.0000000   2.7928460   2.7928460   2.7928460
 AtZNuc=   1.0000000   1.0000000   1.0000000   6.0000000   1.0000000   1.0000000   1.0000000
 Leave Link  101 at Thu May  1 23:50:25 2025, MaxMem= 82678120448 cpu:               5.1 elap:               0.3
 (Enter /sysapps/ubuntu-applications/gaussian-new/avx/g16/l103.exe)

 GradGradGradGradGradGradGradGradGradGradGradGradGradGradGradGradGradGrad
 Berny optimization.
 Initialization pass.
 Trust Radius=3.00D-01 FncErr=1.00D-07 GrdErr=1.00D-07 EigMax=2.50D+02 EigMin=1.00D-04
 Number of steps in this run=      2 maximum allowed number of steps=      2.
 GradGradGradGradGradGradGradGradGradGradGradGradGradGradGradGradGradGrad

 Leave Link  103 at Thu May  1 23:50:25 2025, MaxMem= 82678120448 cpu:               2.2 elap:               0.1
 (Enter /sysapps/ubuntu-applications/gaussian-new/avx/g16/l202.exe)
 Stoichiometry    C22H16F9LuN4O12S3
 Framework group  C1[X(C22H16F9LuN4O12S3)]
 Deg. of freedom   195
 Full point group                 C1      NOp   1
 Largest Abelian subgroup         C1      NOp   1
 Largest concise Abelian subgroup C1      NOp   1
                         Standard orientation:                         
 ---------------------------------------------------------------------
 Center     Atomic      Atomic             Coordinates (Angstroms)
 Number     Number       Type             X           Y           Z
 ---------------------------------------------------------------------
      1          6           0       -5.857624    0.695264    0.334132
      2          6           0       -6.963820    0.841160   -0.512145
      3          6           0       -8.057409    1.607320   -0.107116
      4          6           0       -8.045525    2.236862    1.140115
      5          6           0       -6.939403    2.098240    1.982407
      6          6           0       -5.846194    1.327534    1.584075
      7          6           0       -2.276266   -0.325274    0.334302
      8          6           0       -1.602461    0.008883   -0.996003
      9          6           0       -1.404684    0.113781    1.513922
     10          1           0       -6.963541    0.354371   -1.491581
     11          1           0       -8.917063    1.718975   -0.771161
     12          1           0       -8.899297    2.841113    1.454845
     13          1           0       -6.926233    2.593116    2.955785
     14          1           0       -4.979091    1.218340    2.239031
     15          8           0       -0.196495   -0.116885    1.500748
     16          8           0       -0.416639   -0.292101   -1.153550
     17          8           0        2.983516   -0.699215    1.578253
     18          8           0        2.766628   -0.823902   -1.626889
     19          8           0        0.223696    2.167643   -0.107310
     20         16           0        1.266568    2.925237   -0.865213
     21         16           0        3.309214    0.586143    2.282314
     22         16           0        2.518824   -2.264724   -1.278717
     23          8           0        2.325132    1.914470   -1.188687
     24          8           0        1.683327    4.202624   -0.353089
     25          8           0        2.373504    1.581984    1.679017
     26          8           0        3.453806    0.555416    3.711033
     27          8           0        1.555965   -2.218163   -0.142176
     28          8           0        2.228950   -3.167906   -2.362326
     29          6           0        4.127670   -2.848700   -0.534015
     30          6           0        4.947256    1.018270    1.563725
     31          6           0        0.485689    3.263923   -2.503607
     32          9           0        3.867199   -3.529284    0.562973
     33          9           0        4.900579   -1.819659   -0.249928
     34          9           0        4.734152   -3.626533   -1.408091
     35          9           0        4.819533    1.053095    0.246462
     36          9           0        5.826493    0.096638    1.901086
     37          9           0        5.335699    2.195881    2.006221
     38          9           0        0.445163    2.146353   -3.211021
     39          9           0        1.196533    4.166921   -3.145850
     40          9           0       -0.742380    3.711185   -2.315947
     41          6           0       -4.710102   -0.176602   -0.099270
     42          1           0       -4.650648   -0.192931   -1.199502
     43          6           0       -4.867411   -1.677375    0.306450
     44          6           0       -6.023319   -2.278197   -0.383258
     45          6           0       -5.056275   -1.773781    1.769405
     46          6           0       -1.304590   -2.767889    0.219260
     47          6           0       -2.446873   -3.031663   -1.880488
     48          6           0       -1.301584   -3.285670   -1.021992
     49          1           0       -0.484336   -2.912091    0.921657
     50          1           0       -2.412602   -3.252588   -2.950267
     51          1           0       -0.459876   -3.867642   -1.401301
     52          7           0       -6.953688   -2.707813   -0.918977
     53          7           0       -5.172061   -1.789568    2.920443
     54          7           0       -3.638330   -2.373779   -0.073741
     55          7           0       -3.570923   -2.590639   -1.418432
     56          6           0       -2.460294   -1.908621    0.611633
     57          1           0       -2.652376   -1.976238    1.694370
     58         71           0        1.504812    0.140802    0.020486
     59          8           0       -3.519983    0.304460    0.490855
     60          6           0       -2.086194    0.722201    2.676718
     61          1           0       -2.521029    1.683149    2.355821
     62          1           0       -2.933737    0.088057    2.986722
     63          1           0       -1.372499    0.868256    3.494424
     64          6           0       -2.360857    0.738334   -2.043992
     65          1           0       -3.081543    0.056467   -2.523567
     66          1           0       -2.926634    1.567361   -1.593972
     67          1           0       -1.666192    1.094669   -2.810712
 ---------------------------------------------------------------------
 Rotational constants (GHZ):           0.0841555           0.0348564           0.0312367
 Leave Link  202 at Thu May  1 23:50:25 2025, MaxMem= 82678120448 cpu:               1.8 elap:               0.1
 (Enter /sysapps/ubuntu-applications/gaussian-new/avx/g16/l301.exe)
 General basis read from cards:  (5D, 7F)
 Centers:      10     11     12     13     14     42     49     50     51     57
 Centers:      61     62     63     65     66     67
 S 3 1.00
     Exponent=  1.3010701000D+01 Coefficients=  1.9682158000D-02
     Exponent=  1.9622572000D+00 Coefficients=  1.3796524000D-01
     Exponent=  4.4453796000D-01 Coefficients=  4.7831935000D-01
 S 1 1.00
     Exponent=  1.2194962000D-01 Coefficients=  1.0000000000D+00
 P 1 1.00
     Exponent=  8.0000000000D-01 Coefficients=  1.0000000000D+00
 ****
 Centers:       1      2      3      4      5      6      7      8      9     29
 Centers:      30     31     41     43     44     45     46     47     48     56
 Centers:      60     64
 S 5 1.00
     Exponent=  1.2384016938D+03 Coefficients=  5.4568832082D-03
     Exponent=  1.8629004992D+02 Coefficients=  4.0638409211D-02
     Exponent=  4.2251176346D+01 Coefficients=  1.8025593888D-01
     Exponent=  1.1676557932D+01 Coefficients=  4.6315121755D-01
     Exponent=  3.5930506482D+00 Coefficients=  4.4087173314D-01
 S 1 1.00
     Exponent=  4.0245147363D-01 Coefficients=  1.0000000000D+00
 S 1 1.00
     Exponent=  1.3090182668D-01 Coefficients=  1.0000000000D+00
 P 3 1.00
     Exponent=  9.4680970621D+00 Coefficients=  3.8387871728D-02
     Exponent=  2.0103545142D+00 Coefficients=  2.1117025112D-01
     Exponent=  5.4771004707D-01 Coefficients=  5.1328172114D-01
 P 1 1.00
     Exponent=  1.5268613795D-01 Coefficients=  1.0000000000D+00
 D 1 1.00
     Exponent=  8.0000000000D-01 Coefficients=  1.0000000000D+00
 ****
 Centers:      52     53     54     55
 S 5 1.00
     Exponent=  1.7128415853D+03 Coefficients= -5.3934125305D-03
     Exponent=  2.5764812677D+02 Coefficients= -4.0221581118D-02
     Exponent=  5.8458245853D+01 Coefficients= -1.7931144990D-01
     Exponent=  1.6198367905D+01 Coefficients= -4.6376317823D-01
     Exponent=  5.0052600809D+00 Coefficients= -4.4171422662D-01
 S 1 1.00
     Exponent=  5.8731856571D-01 Coefficients=  1.0000000000D+00
 S 1 1.00
     Exponent=  1.8764592253D-01 Coefficients=  1.0000000000D+00
 P 3 1.00
     Exponent=  1.3571470233D+01 Coefficients= -4.0072398852D-02
     Exponent=  2.9257372874D+00 Coefficients= -2.1807045028D-01
     Exponent=  7.9927750754D-01 Coefficients= -5.1294466049D-01
 P 1 1.00
     Exponent=  2.1954348034D-01 Coefficients=  1.0000000000D+00
 D 1 1.00
     Exponent=  1.0000000000D+00 Coefficients=  1.0000000000D+00
 ****
 Centers:      15     16     17     18     19     23     24     25     26     27
 Centers:      28     59
 S 5 1.00
     Exponent=  2.2661767785D+03 Coefficients= -5.3431809926D-03
     Exponent=  3.4087010191D+02 Coefficients= -3.9890039230D-02
     Exponent=  7.7363135167D+01 Coefficients= -1.7853911985D-01
     Exponent=  2.1479644940D+01 Coefficients= -4.6427684959D-01
     Exponent=  6.6589433124D+00 Coefficients= -4.4309745172D-01
 S 1 1.00
     Exponent=  8.0975975668D-01 Coefficients=  1.0000000000D+00
 S 1 1.00
     Exponent=  2.5530772234D-01 Coefficients=  1.0000000000D+00
 P 3 1.00
     Exponent=  1.7721504317D+01 Coefficients=  4.3394573193D-02
     Exponent=  3.8635505440D+00 Coefficients=  2.3094120765D-01
     Exponent=  1.0480920883D+00 Coefficients=  5.1375311064D-01
 P 1 1.00
     Exponent=  2.7641544411D-01 Coefficients=  1.0000000000D+00
 D 1 1.00
     Exponent=  1.2000000000D+00 Coefficients=  1.0000000000D+00
 ****
 Centers:      32     33     34     35     36     37     38     39     40
 S 5 1.00
     Exponent=  2.8948325990D+03 Coefficients= -5.3408255515D-03
     Exponent=  4.3541939120D+02 Coefficients= -3.9904258866D-02
     Exponent=  9.8843328866D+01 Coefficients= -1.7912768038D-01
     Exponent=  2.7485198001D+01 Coefficients= -4.6758090825D-01
     Exponent=  8.5405498171D+00 Coefficients= -4.4653131020D-01
 S 1 1.00
     Exponent=  1.0654578038D+00 Coefficients=  1.0000000000D+00
 S 1 1.00
     Exponent=  3.3247346748D-01 Coefficients=  1.0000000000D+00
 P 3 1.00
     Exponent=  2.2696633924D+01 Coefficients= -4.5212874436D-02
     Exponent=  4.9872339257D+00 Coefficients= -2.3754317067D-01
     Exponent=  1.3491613954D+00 Coefficients= -5.1287353587D-01
 P 1 1.00
     Exponent=  3.4829881977D-01 Coefficients=  1.0000000000D+00
 D 1 1.00
     Exponent=  1.4000000000D+00 Coefficients=  1.0000000000D+00
 ****
 Centers:      20     21     22
 S 5 1.00
     Exponent=  9.1849303010D+03 Coefficients= -2.2294387756D-03
     Exponent=  1.3815105503D+03 Coefficients= -1.6683029937D-02
     Exponent=  3.1387147580D+02 Coefficients= -7.5262436116D-02
     Exponent=  8.8053870623D+01 Coefficients= -1.9376827038D-01
     Exponent=  2.7039914905D+01 Coefficients= -1.7718020803D-01
 S 3 1.00
     Exponent=  4.5648731303D+01 Coefficients= -1.0736062573D-01
     Exponent=  4.9664522326D+00 Coefficients=  6.5066293018D-01
     Exponent=  2.0116242047D+00 Coefficients=  5.9712155354D-01
 S 1 1.00
     Exponent=  3.5661077013D-01 Coefficients=  1.0000000000D+00
 S 1 1.00
     Exponent=  1.3507221477D-01 Coefficients=  1.0000000000D+00
 P 5 1.00
     Exponent=  2.6198233439D+02 Coefficients= -9.2729929822D-03
     Exponent=  6.1306894736D+01 Coefficients= -6.6547669241D-02
     Exponent=  1.9103729887D+01 Coefficients= -2.4828595903D-01
     Exponent=  6.6567720378D+00 Coefficients= -4.8703847402D-01
     Exponent=  2.3959635161D+00 Coefficients= -3.9337850312D-01
 P 1 1.00
     Exponent=  6.1776161679D-01 Coefficients=  1.0000000000D+00
 P 1 1.00
     Exponent=  1.6993376871D-01 Coefficients=  1.0000000000D+00
 D 1 1.00
     Exponent=  5.5000000000D-01 Coefficients=  1.0000000000D+00
 ****
 Centers:      58
 S 5 1.00
     Exponent=  9.5169767000D+04 Coefficients=  2.2000000000D-05
     Exponent=  1.5488403000D+04 Coefficients=  1.4500000000D-04
     Exponent=  3.7762335000D+03 Coefficients=  6.5100000000D-04
     Exponent=  1.0790501000D+03 Coefficients=  2.0380000000D-03
     Exponent=  2.6895380000D+02 Coefficients=  5.1270000000D-03
 S 1 1.00
     Exponent=  6.3467900000D+01 Coefficients=  1.0000000000D+00
 S 1 1.00
     Exponent=  4.5133200000D+01 Coefficients=  1.0000000000D+00
 S 1 1.00
     Exponent=  2.1456800000D+01 Coefficients=  1.0000000000D+00
 S 1 1.00
     Exponent=  5.3483000000D+00 Coefficients=  1.0000000000D+00
 S 1 1.00
     Exponent=  2.6778000000D+00 Coefficients=  1.0000000000D+00
 S 1 1.00
     Exponent=  1.0287000000D+00 Coefficients=  1.0000000000D+00
 S 1 1.00
     Exponent=  4.4080000000D-01 Coefficients=  1.0000000000D+00
 S 1 1.00
     Exponent=  7.9100000000D-02 Coefficients=  1.0000000000D+00
 S 1 1.00
     Exponent=  3.1300000000D-02 Coefficients=  1.0000000000D+00
 P 3 1.00
     Exponent=  1.2333733920D+01 Coefficients= -1.5313031066D-01
     Exponent=  1.1080331415D+01 Coefficients= -2.0300664852D-01
     Exponent=  2.0341747228D+00 Coefficients= -1.9458361263D-01
 P 6 1.00
     Exponent=  1.5005317313D+03 Coefficients= -1.0192569555D-03
     Exponent=  3.8239748937D+02 Coefficients= -5.9476212135D-03
     Exponent=  1.3299969628D+02 Coefficients= -1.6265160929D-02
     Exponent=  4.6110032419D+01 Coefficients= -3.5623845839D-02
     Exponent=  1.5583529011D+01 Coefficients=  2.3709171074D-01
     Exponent=  5.7856677022D+00 Coefficients= -3.0670977844D-01
 P 1 1.00
     Exponent=  3.7823361008D+00 Coefficients=  1.0000000000D+00
 P 1 1.00
     Exponent=  1.3682592248D+00 Coefficients=  1.0000000000D+00
 P 1 1.00
     Exponent=  5.7288205601D-01 Coefficients=  1.0000000000D+00
 P 1 1.00
     Exponent=  2.2793165135D-01 Coefficients=  1.0000000000D+00
 P 1 1.00
     Exponent=  8.1403917986D-02 Coefficients=  1.0000000000D+00
 P 1 1.00
     Exponent=  2.9091071778D-02 Coefficients=  1.0000000000D+00
 D 6 1.00
     Exponent=  4.8452750000D+02 Coefficients=  2.2860000000D-03
     Exponent=  1.4666550000D+02 Coefficients=  1.8629000000D-02
     Exponent=  5.6377900000D+01 Coefficients=  7.4088000000D-02
     Exponent=  2.3671100000D+01 Coefficients=  1.6155400000D-01
     Exponent=  9.4401000000D+00 Coefficients=  3.0809100000D-01
     Exponent=  4.3712000000D+00 Coefficients=  4.4833400000D-01
 D 1 1.00
     Exponent=  1.9580000000D+00 Coefficients=  1.0000000000D+00
 D 1 1.00
     Exponent=  7.2720000000D-01 Coefficients=  1.0000000000D+00
 D 1 1.00
     Exponent=  2.4600000000D-01 Coefficients=  1.0000000000D+00
 D 1 1.00
     Exponent=  7.4400000000D-02 Coefficients=  1.0000000000D+00
 F 5 1.00
     Exponent=  1.7515590000D+02 Coefficients=  4.1020000000D-03
     Exponent=  6.2890900000D+01 Coefficients=  3.9086000000D-02
     Exponent=  2.8362400000D+01 Coefficients=  1.4704400000D-01
     Exponent=  1.3247800000D+01 Coefficients=  2.7109200000D-01
     Exponent=  6.1440000000D+00 Coefficients=  3.4566500000D-01
 F 1 1.00
     Exponent=  2.7623000000D+00 Coefficients=  1.0000000000D+00
 F 1 1.00
     Exponent=  1.1574000000D+00 Coefficients=  1.0000000000D+00
 F 1 1.00
     Exponent=  4.2440000000D-01 Coefficients=  1.0000000000D+00
 G 1 1.00
     Exponent=  7.0090000000D-01 Coefficients=  1.0000000000D+00
 ****
 ======================================================================================================
                                       Pseudopotential Parameters
 ======================================================================================================
  Center     Atomic      Valence      Angular      Power
  Number     Number     Electrons     Momentum     of R      Exponent        Coefficient   SO-Coeffient
 ======================================================================================================
    1          6
                                   No pseudopotential on this center.
    2          6
                                   No pseudopotential on this center.
    3          6
                                   No pseudopotential on this center.
    4          6
                                   No pseudopotential on this center.
    5          6
                                   No pseudopotential on this center.
    6          6
                                   No pseudopotential on this center.
    7          6
                                   No pseudopotential on this center.
    8          6
                                   No pseudopotential on this center.
    9          6
                                   No pseudopotential on this center.
   10          1
                                   No pseudopotential on this center.
   11          1
                                   No pseudopotential on this center.
   12          1
                                   No pseudopotential on this center.
   13          1
                                   No pseudopotential on this center.
   14          1
                                   No pseudopotential on this center.
   15          8
                                   No pseudopotential on this center.
   16          8
                                   No pseudopotential on this center.
   17          8
                                   No pseudopotential on this center.
   18          8
                                   No pseudopotential on this center.
   19          8
                                   No pseudopotential on this center.
   20         16
                                   No pseudopotential on this center.
   21         16
                                   No pseudopotential on this center.
   22         16
                                   No pseudopotential on this center.
   23          8
                                   No pseudopotential on this center.
   24          8
                                   No pseudopotential on this center.
   25          8
                                   No pseudopotential on this center.
   26          8
                                   No pseudopotential on this center.
   27          8
                                   No pseudopotential on this center.
   28          8
                                   No pseudopotential on this center.
   29          6
                                   No pseudopotential on this center.
   30          6
                                   No pseudopotential on this center.
   31          6
                                   No pseudopotential on this center.
   32          9
                                   No pseudopotential on this center.
   33          9
                                   No pseudopotential on this center.
   34          9
                                   No pseudopotential on this center.
   35          9
                                   No pseudopotential on this center.
   36          9
                                   No pseudopotential on this center.
   37          9
                                   No pseudopotential on this center.
   38          9
                                   No pseudopotential on this center.
   39          9
                                   No pseudopotential on this center.
   40          9
                                   No pseudopotential on this center.
   41          6
                                   No pseudopotential on this center.
   42          1
                                   No pseudopotential on this center.
   43          6
                                   No pseudopotential on this center.
   44          6
                                   No pseudopotential on this center.
   45          6
                                   No pseudopotential on this center.
   46          6
                                   No pseudopotential on this center.
   47          6
                                   No pseudopotential on this center.
   48          6
                                   No pseudopotential on this center.
   49          1
                                   No pseudopotential on this center.
   50          1
                                   No pseudopotential on this center.
   51          1
                                   No pseudopotential on this center.
   52          7
                                   No pseudopotential on this center.
   53          7
                                   No pseudopotential on this center.
   54          7
                                   No pseudopotential on this center.
   55          7
                                   No pseudopotential on this center.
   56          6
                                   No pseudopotential on this center.
   57          1
                                   No pseudopotential on this center.
   58         71           43
                                      H and up 
                                                     2        1.0000000        0.00000000    0.00000000
                                      S - H
                                                     2       35.1620970      989.99558400    0.00000000
                                      P - H
                                                     2       19.4644020      278.86565200    0.00000000
                                      D - H
                                                     2       10.0068650       71.00917800    0.00000000
                                      F - H
                                                     2       23.5179320      -47.40589000    0.00000000
                                      G - H
                                                     2       29.4122380      -35.55714600    0.00000000
   59          8
                                   No pseudopotential on this center.
   60          6
                                   No pseudopotential on this center.
   61          1
                                   No pseudopotential on this center.
   62          1
                                   No pseudopotential on this center.
   63          1
                                   No pseudopotential on this center.
   64          6
                                   No pseudopotential on this center.
   65          1
                                   No pseudopotential on this center.
   66          1
                                   No pseudopotential on this center.
   67          1
                                   No pseudopotential on this center.
 ======================================================================================================
 Ernie: Thresh=  0.10000D-02 Tol=  0.10000D-05 Strict=F.
 There are   961 symmetry adapted cartesian basis functions of A   symmetry.
 There are   888 symmetry adapted basis functions of A   symmetry.
   888 basis functions,  1612 primitive gaussians,   961 cartesian basis functions
   222 alpha electrons      222 beta electrons
       nuclear repulsion energy     11008.9097298629 Hartrees.
 IExCor= 7252 DFT=T Ex+Corr=MN15 ExCW=0 ScaHFX=  0.440000
 ScaDFX=  1.000000  1.000000  1.000000  1.000000 ScalE2=  1.000000  1.000000
 IRadAn=      5 IRanWt=     -1 IRanGd=            0 ICorTp=0 IEmpDi=  4
 NAtoms=   67 NActive=   67 NUniq=   67 SFac= 1.00D+00 NAtFMM=   60 NAOKFM=T Big=T
 Integral buffers will be    131072 words long.
 Raffenetti 2 integral format.
 Two-electron integral symmetry is turned on.
 Force inversion solution in PCM.
 ------------------------------------------------------------------------------
 Polarizable Continuum Model (PCM)
 =================================
 Model                : PCM.
 Atomic radii         : SMD-Coulomb.
 Polarization charges : Total charges.
 Charge compensation  : None.
 Solution method      : Matrix inversion.
 Cavity type          : VdW (van der Waals Surface) (Alpha=1.000).
 Cavity algorithm     : GePol (No added spheres)
                        Default sphere list used, NSphG=   67.
                        Lebedev-Laikov grids with approx.  5.0 points / Ang**2.
                        Smoothing algorithm: York/Karplus (Gamma=1.0000).
                        Polarization charges: spherical gaussians, with
                                              point-specific exponents (IZeta= 3).
                        Self-potential: point-specific (ISelfS= 7).
                        Self-field    : sphere-specific E.n sum rule (ISelfD= 2).
 1st derivatives      : Analytical E(r).r(x)/FMM algorithm (CHGder, D1EAlg=3).
                        Cavity 1st derivative terms included.
 2nd derivatives      : Analytical E(r).r(xy)/FMM algorithm (CHGder, D2EAlg=3).
                        Cavity 2nd derivative terms included.
 Solvent              : DiChloroEthane, Eps=  10.125000 Eps(inf)=   2.087447
 ------------------------------------------------------------------------------
 GePol: Number of generator spheres                  =      67
 GePol: Total number of spheres                      =      67
 GePol: Number of exposed spheres                    =      66 ( 98.51%)
 GePol: Number of points                             =    4757
 GePol: Average weight of points                     =       0.13
 GePol: Minimum weight of points                     =   0.22D-11
 GePol: Maximum weight of points                     =    0.21501
 GePol: Number of points with low weight             =     295
 GePol: Fraction of low-weight points (<1% of avg)   =       6.20%
 GePol: Cavity surface area                          =    614.110 Ang**2
 GePol: Cavity volume                                =    740.078 Ang**3
 ------------------------------------------------------------------------------
 Atomic radii for non-electrostatic terms: SMD-CDS.
 ------------------------------------------------------------------------------
 PCM non-electrostatic energy =         0.0043080322 Hartrees.
 Nuclear repulsion after PCM non-electrostatic terms =    11008.9140378951 Hartrees.
 Leave Link  301 at Thu May  1 23:50:26 2025, MaxMem= 82678120448 cpu:               4.3 elap:               0.2
 (Enter /sysapps/ubuntu-applications/gaussian-new/avx/g16/l302.exe)
 NPDir=0 NMtPBC=     1 NCelOv=     1 NCel=       1 NClECP=     1 NCelD=      1
         NCelK=      1 NCelE2=     1 NClLst=     1 CellRange=     0.0.
 One-electron integrals computed using PRISM.
 One-electron integral symmetry used in STVInt
   1 Symmetry operations used in ECPInt.
 ECPInt:  NShTT=   73153 NPrTT=  279412 LenC2=   56026 LenP2D=  131149.
 LDataN:  DoStor=T MaxTD1= 9 Len=  602
 NBasis=   888 RedAO= T EigKep=  2.38D-04  NBF=   888
 NBsUse=   888 1.00D-06 EigRej= -1.00D+00 NBFU=   888
 Precomputing XC quadrature grid using
 IXCGrd= 4 IRadAn=           5 IRanWt=          -1 IRanGd=           0 AccXCQ= 0.00D+00.
 Defaulting to unpruned grid for atomic number  71.
 Generated NRdTot=       0 NPtTot=           0 NUsed=           0 NTot=          32
 NSgBfM=   917   910   911   911   917 MxSgAt=    67 MxSgA2=    67.
 Leave Link  302 at Thu May  1 23:50:29 2025, MaxMem= 82678120448 cpu:              66.1 elap:               2.8
 (Enter /sysapps/ubuntu-applications/gaussian-new/avx/g16/l303.exe)
 DipDrv:  MaxL=1.
 Leave Link  303 at Thu May  1 23:50:29 2025, MaxMem= 82678120448 cpu:              10.9 elap:               0.5
 (Enter /sysapps/ubuntu-applications/gaussian-new/avx/g16/l401.exe)
 ExpMin= 2.91D-02 ExpMax= 9.52D+04 ExpMxC= 1.55D+04 IAcc=3 IRadAn=         5 AccDes= 0.00D+00
 Harris functional with IExCor= 1009 and IRadAn=       5 diagonalized for initial guess.
 HarFok:  IExCor= 1009 AccDes= 0.00D+00 IRadAn=         5 IDoV= 1 UseB2=F ITyADJ=14
 ICtDFT=  3500011 ScaDFX=  1.000000  1.000000  1.000000  1.000000
 Defaulting to unpruned grid for atomic number  71.
 FoFCou: FMM=F IPFlag=           0 FMFlag=      100000 FMFlg1=        2001
         NFxFlg=           0 DoJE=T BraDBF=F KetDBF=T FulRan=T
         wScrn=  0.000000 ICntrl=       500 IOpCl=  0 I1Cent=   200000004 NGrid=           0
         NMat0=    1 NMatS0=      1 NMatT0=    0 NMatD0=    1 NMtDS0=    0 NMtDT0=    0
 Petite list used in FoFCou.
 Harris En= -5296.73037000026    
 JPrj=0 DoOrth=F DoCkMO=F.
 Initial guess <Sx>= 0.0000 <Sy>= 0.0000 <Sz>= 0.0000 <S**2>=-0.0000 S=-0.0000
 Leave Link  401 at Thu May  1 23:50:36 2025, MaxMem= 82678120448 cpu:             170.8 elap:               7.2
 (Enter /sysapps/ubuntu-applications/gaussian-new/avx/g16/l502.exe)
 Integral symmetry usage will be decided dynamically.
 UHF open shell SCF:
 Using DIIS extrapolation, IDIIS=  1040.
 NGot= 82678120448 LenX= 82676240119 LenY= 82675315637
 Requested convergence on RMS density matrix=1.00D-08 within 500 cycles.
 Requested convergence on MAX density matrix=1.00D-06.
 Requested convergence on             energy=1.00D-06.
 No special actions if energy rises.
 Fock matrices will be formed incrementally for  20 cycles.

 Cycle   1  Pass 1  IDiag  1:
 FoFJK:  IHMeth= 1 ICntrl=       0 DoSepK=F KAlg= 0 I1Cent=           0 FoldK=F
 IRaf= 850000000 NMat=       1 IRICut=       1 DoRegI=T DoRafI=F ISym2E= 0 IDoP0=0 IntGTp=1.
 FoFCou: FMM=T IPFlag=           0 FMFlag=      100000 FMFlg1=        2001
         NFxFlg=           0 DoJE=F BraDBF=F KetDBF=F FulRan=T
         wScrn=  0.000000 ICntrl=         0 IOpCl=  1 I1Cent=           0 NGrid=           0
         NMat0=    1 NMatS0=      1 NMatT0=    0 NMatD0=    1 NMtDS0=    0 NMtDT0=    0
 Symmetry not used in FoFCou.
 FMM levels:  10  Number of levels for PrismC:   9
 Defaulting to unpruned grid for atomic number  71.
 Defaulting to unpruned grid for atomic number  71.
 Defaulting to unpruned grid for atomic number  71.
 Defaulting to unpruned grid for atomic number  71.
 Defaulting to unpruned grid for atomic number  71.
 Defaulting to unpruned grid for atomic number  71.
 Defaulting to unpruned grid for atomic number  71.
 Defaulting to unpruned grid for atomic number  71.
 Defaulting to unpruned grid for atomic number  71.
 Defaulting to unpruned grid for atomic number  71.
 Defaulting to unpruned grid for atomic number  71.
 Defaulting to unpruned grid for atomic number  71.
 Defaulting to unpruned grid for atomic number  71.
 Defaulting to unpruned grid for atomic number  71.
 Defaulting to unpruned grid for atomic number  71.
 Defaulting to unpruned grid for atomic number  71.
 Defaulting to unpruned grid for atomic number  71.
 Defaulting to unpruned grid for atomic number  71.
 Defaulting to unpruned grid for atomic number  71.
 Defaulting to unpruned grid for atomic number  71.
 Defaulting to unpruned grid for atomic number  71.
 Defaulting to unpruned grid for atomic number  71.
 Defaulting to unpruned grid for atomic number  71.
 Defaulting to unpruned grid for atomic number  71.
 Inv3:  Mode=1 IEnd=    67887147.
 Iteration    1 A*A^-1 deviation from unit magnitude is 4.88D-15 for   4747.
 Iteration    1 A*A^-1 deviation from orthogonality  is 3.60D-15 for   4742   4274.
 Iteration    1 A^-1*A deviation from unit magnitude is 4.88D-15 for   4747.
 Iteration    1 A^-1*A deviation from orthogonality  is 3.62D-15 for   4731   4168.
 E= -5291.05844134210    
 DIIS: error= 1.74D-01 at cycle   1 NSaved=   1.
 NSaved= 1 IEnMin= 1 EnMin= -5291.05844134210     IErMin= 1 ErrMin= 1.74D-01
 ErrMax= 1.74D-01  0.00D+00 EMaxC= 1.00D-01 BMatC= 1.56D+02 BMatP= 1.56D+02
 IDIUse=3 WtCom= 0.00D+00 WtEn= 1.00D+00
 Coeff-Com:  0.100D+01
 Coeff-En:   0.100D+01
 Coeff:      0.100D+01
 Gap=     0.294 Goal=   None    Shift=    0.000
 Gap=     0.294 Goal=   None    Shift=    0.000
 GapD=    0.294 DampG=1.000 DampE=0.125 DampFc=0.1250 IDamp=-1.
 Damping current iteration by 1.25D-01
 RMSDP=9.90D-03 MaxDP=1.39D+00              OVMax= 9.90D-01

 Cycle   2  Pass 1  IDiag  1:
 RMSU=  1.23D-03    CP:  9.93D-01
 E= -5291.75113291369     Delta-E=       -0.692691571581 Rises=F Damp=T
 DIIS: error= 7.73D-02 at cycle   2 NSaved=   2.
 NSaved= 2 IEnMin= 2 EnMin= -5291.75113291369     IErMin= 2 ErrMin= 7.73D-02
 ErrMax= 7.73D-02  0.00D+00 EMaxC= 1.00D-01 BMatC= 3.23D+01 BMatP= 1.56D+02
 IDIUse=3 WtCom= 2.27D-01 WtEn= 7.73D-01
 Coeff-Com: -0.622D+00 0.162D+01
 Coeff-En:   0.376D+00 0.624D+00
 Coeff:      0.149D+00 0.851D+00
 Gap=     0.056 Goal=   None    Shift=    0.000
 Gap=     0.056 Goal=   None    Shift=    0.000
 RMSDP=3.85D-03 MaxDP=5.22D-01 DE=-6.93D-01 OVMax= 9.84D-01

 Cycle   3  Pass 1  IDiag  1:
 RMSU=  3.83D-03    CP:  9.70D-01  1.04D+00
 E= -5281.12802903231     Delta-E=       10.623103881377 Rises=F Damp=F
 DIIS: error= 9.39D-02 at cycle   3 NSaved=   3.
 NSaved= 3 IEnMin= 2 EnMin= -5291.75113291369     IErMin= 2 ErrMin= 7.73D-02
 ErrMax= 9.39D-02  0.00D+00 EMaxC= 1.00D-01 BMatC= 7.54D+01 BMatP= 3.23D+01
 IDIUse=2 WtCom= 0.00D+00 WtEn= 1.00D+00
 EnCoef did     2 forward-backward iterations
 Coeff-En:   0.208D+00 0.605D+00 0.186D+00
 Coeff:      0.208D+00 0.605D+00 0.186D+00
 Gap=     0.015 Goal=   None    Shift=    0.000
 Gap=     0.015 Goal=   None    Shift=    0.000
 RMSDP=3.08D-03 MaxDP=4.18D-01 DE= 1.06D+01 OVMax= 9.98D-01

 Cycle   4  Pass 1  IDiag  1:
 RMSU=  1.92D-03    CP:  9.72D-01  9.60D-01  3.72D-01
 E= -5294.05336632770     Delta-E=      -12.925337295392 Rises=F Damp=F
 DIIS: error= 1.22D-01 at cycle   4 NSaved=   4.
 NSaved= 4 IEnMin= 4 EnMin= -5294.05336632770     IErMin= 2 ErrMin= 7.73D-02
 ErrMax= 1.22D-01  0.00D+00 EMaxC= 1.00D-01 BMatC= 6.56D+01 BMatP= 3.23D+01
 IDIUse=2 WtCom= 0.00D+00 WtEn= 1.00D+00
 EnCoef did   100 forward-backward iterations
 Coeff-En:   0.321D+00 0.373D-02 0.000D+00 0.675D+00
 Coeff:      0.321D+00 0.373D-02 0.000D+00 0.675D+00
 Gap=     0.860 Goal=   None    Shift=    0.000
 Gap=     0.860 Goal=   None    Shift=    0.000
 RMSDP=1.51D-03 MaxDP=2.42D-01 DE=-1.29D+01 OVMax= 1.13D-01

 Cycle   5  Pass 1  IDiag  1:
 RMSU=  8.92D-04    CP:  9.84D-01  5.72D-01  3.05D-01  4.40D-01
 E= -5295.57105017258     Delta-E=       -1.517683844884 Rises=F Damp=F
 DIIS: error= 5.06D-02 at cycle   5 NSaved=   5.
 NSaved= 5 IEnMin= 5 EnMin= -5295.57105017258     IErMin= 5 ErrMin= 5.06D-02
 ErrMax= 5.06D-02  0.00D+00 EMaxC= 1.00D-01 BMatC= 1.19D+01 BMatP= 3.23D+01
 IDIUse=3 WtCom= 4.94D-01 WtEn= 5.06D-01
 Coeff-Com: -0.117D-01 0.123D+00 0.437D-02 0.301D+00 0.583D+00
 Coeff-En:   0.000D+00 0.000D+00 0.000D+00 0.231D+00 0.769D+00
 Coeff:     -0.577D-02 0.610D-01 0.216D-02 0.266D+00 0.677D+00
 Gap=     0.231 Goal=   None    Shift=    0.000
 Gap=     0.231 Goal=   None    Shift=    0.000
 RMSDP=8.04D-04 MaxDP=9.90D-02 DE=-1.52D+00 OVMax= 8.85D-02

 Cycle   6  Pass 1  IDiag  1:
 RMSU=  3.71D-04    CP:  9.79D-01  6.44D-01  2.80D-01  6.64D-01  3.84D-01
 E= -5295.93454328622     Delta-E=       -0.363493113635 Rises=F Damp=F
 DIIS: error= 1.16D-02 at cycle   6 NSaved=   6.
 NSaved= 6 IEnMin= 6 EnMin= -5295.93454328622     IErMin= 6 ErrMin= 1.16D-02
 ErrMax= 1.16D-02  0.00D+00 EMaxC= 1.00D-01 BMatC= 8.95D-01 BMatP= 1.19D+01
 IDIUse=3 WtCom= 8.84D-01 WtEn= 1.16D-01
 Coeff-Com: -0.810D-01 0.945D-01 0.216D-02 0.753D-01 0.439D+00 0.470D+00
 Coeff-En:   0.000D+00 0.000D+00 0.000D+00 0.000D+00 0.156D+00 0.844D+00
 Coeff:     -0.716D-01 0.835D-01 0.191D-02 0.666D-01 0.406D+00 0.513D+00
 Gap=     0.206 Goal=   None    Shift=    0.000
 Gap=     0.206 Goal=   None    Shift=    0.000
 RMSDP=3.71D-04 MaxDP=3.31D-02 DE=-3.63D-01 OVMax= 3.21D-02

 Cycle   7  Pass 1  IDiag  1:
 RMSU=  1.34D-04    CP:  9.80D-01  6.38D-01  3.04D-01  5.92D-01  6.22D-01
                    CP:  4.19D-01
 E= -5295.99872184276     Delta-E=       -0.064178556540 Rises=F Damp=F
 DIIS: error= 7.93D-03 at cycle   7 NSaved=   7.
 NSaved= 7 IEnMin= 7 EnMin= -5295.99872184276     IErMin= 7 ErrMin= 7.93D-03
 ErrMax= 7.93D-03  0.00D+00 EMaxC= 1.00D-01 BMatC= 2.28D-01 BMatP= 8.95D-01
 IDIUse=3 WtCom= 9.21D-01 WtEn= 7.93D-02
 Coeff-Com: -0.641D-01 0.835D-01 0.578D-03 0.274D-01 0.174D+00 0.280D+00
 Coeff-Com:  0.499D+00
 Coeff-En:   0.000D+00 0.000D+00 0.000D+00 0.000D+00 0.000D+00 0.152D+00
 Coeff-En:   0.848D+00
 Coeff:     -0.590D-01 0.768D-01 0.532D-03 0.252D-01 0.160D+00 0.270D+00
 Coeff:      0.526D+00
 Gap=     0.201 Goal=   None    Shift=    0.000
 Gap=     0.201 Goal=   None    Shift=    0.000
 RMSDP=8.26D-05 MaxDP=6.68D-03 DE=-6.42D-02 OVMax= 6.43D-03

 Cycle   8  Pass 1  IDiag  1:
 RMSU=  3.44D-05    CP:  9.80D-01  6.39D-01  3.01D-01  5.98D-01  6.21D-01
                    CP:  5.41D-01  5.77D-01
 E= -5296.00725974872     Delta-E=       -0.008537905956 Rises=F Damp=F
 DIIS: error= 5.99D-03 at cycle   8 NSaved=   8.
 NSaved= 8 IEnMin= 8 EnMin= -5296.00725974872     IErMin= 8 ErrMin= 5.99D-03
 ErrMax= 5.99D-03  0.00D+00 EMaxC= 1.00D-01 BMatC= 1.11D-01 BMatP= 2.28D-01
 IDIUse=3 WtCom= 9.40D-01 WtEn= 5.99D-02
 Coeff-Com: -0.460D-01 0.709D-01-0.688D-03 0.251D-01 0.641D-01 0.975D-01
 Coeff-Com:  0.199D+00 0.591D+00
 Coeff-En:   0.000D+00 0.000D+00 0.000D+00 0.000D+00 0.000D+00 0.000D+00
 Coeff-En:   0.000D+00 0.100D+01
 Coeff:     -0.433D-01 0.667D-01-0.647D-03 0.236D-01 0.603D-01 0.917D-01
 Coeff:      0.187D+00 0.615D+00
 Gap=     0.202 Goal=   None    Shift=    0.000
 Gap=     0.202 Goal=   None    Shift=    0.000
 RMSDP=2.16D-05 MaxDP=2.99D-03 DE=-8.54D-03 OVMax= 2.74D-03

 Cycle   9  Pass 1  IDiag  1:
 RMSU=  1.70D-05    CP:  9.80D-01  6.40D-01  3.00D-01  6.00D-01  6.18D-01
                    CP:  5.40D-01  6.45D-01  7.81D-01
 E= -5296.00884656664     Delta-E=       -0.001586817929 Rises=F Damp=F
 DIIS: error= 5.08D-03 at cycle   9 NSaved=   9.
 NSaved= 9 IEnMin= 9 EnMin= -5296.00884656664     IErMin= 9 ErrMin= 5.08D-03
 ErrMax= 5.08D-03  0.00D+00 EMaxC= 1.00D-01 BMatC= 8.03D-02 BMatP= 1.11D-01
 IDIUse=3 WtCom= 9.49D-01 WtEn= 5.08D-02
 Coeff-Com: -0.282D-01 0.533D-01-0.128D-02 0.229D-01-0.360D-02-0.416D-01
 Coeff-Com: -0.157D+00 0.125D+00 0.103D+01
 Coeff-En:   0.000D+00 0.000D+00 0.000D+00 0.000D+00 0.000D+00 0.000D+00
 Coeff-En:   0.000D+00 0.000D+00 0.100D+01
 Coeff:     -0.268D-01 0.506D-01-0.122D-02 0.218D-01-0.341D-02-0.395D-01
 Coeff:     -0.149D+00 0.119D+00 0.103D+01
 Gap=     0.204 Goal=   None    Shift=    0.000
 Gap=     0.204 Goal=   None    Shift=    0.000
 RMSDP=2.71D-05 MaxDP=4.71D-03 DE=-1.59D-03 OVMax= 3.62D-03

 Cycle  10  Pass 1  IDiag  1:
 RMSU=  1.88D-05    CP:  9.80D-01  6.44D-01  3.00D-01  6.07D-01  6.08D-01
                    CP:  5.47D-01  6.43D-01  1.07D+00  7.54D-01
 E= -5296.01090416279     Delta-E=       -0.002057596143 Rises=F Damp=F
 DIIS: error= 3.86D-03 at cycle  10 NSaved=  10.
 NSaved=10 IEnMin=10 EnMin= -5296.01090416279     IErMin=10 ErrMin= 3.86D-03
 ErrMax= 3.86D-03  0.00D+00 EMaxC= 1.00D-01 BMatC= 4.63D-02 BMatP= 8.03D-02
 IDIUse=3 WtCom= 9.61D-01 WtEn= 3.86D-02
 Coeff-Com: -0.940D-02 0.210D-01-0.139D-02 0.130D-01-0.969D-02-0.786D-01
 Coeff-Com: -0.347D+00-0.107D+01 0.111D+01 0.137D+01
 Coeff-En:   0.000D+00 0.000D+00 0.000D+00 0.000D+00 0.000D+00 0.000D+00
 Coeff-En:   0.000D+00 0.000D+00 0.000D+00 0.100D+01
 Coeff:     -0.904D-02 0.202D-01-0.133D-02 0.125D-01-0.931D-02-0.756D-01
 Coeff:     -0.333D+00-0.103D+01 0.107D+01 0.136D+01
 Gap=     0.205 Goal=   None    Shift=    0.000
 Gap=     0.205 Goal=   None    Shift=    0.000
 RMSDP=3.71D-05 MaxDP=8.01D-03 DE=-2.06D-03 OVMax= 3.06D-03

 Cycle  11  Pass 1  IDiag  1:
 RMSU=  1.74D-05    CP:  9.79D-01  6.45D-01  2.97D-01  6.14D-01  5.99D-01
                    CP:  5.50D-01  6.48D-01  1.31D+00  2.11D+00  1.38D+00
 E= -5296.01322896595     Delta-E=       -0.002324803159 Rises=F Damp=F
 DIIS: error= 1.50D-03 at cycle  11 NSaved=  11.
 NSaved=11 IEnMin=11 EnMin= -5296.01322896595     IErMin=11 ErrMin= 1.50D-03
 ErrMax= 1.50D-03  0.00D+00 EMaxC= 1.00D-01 BMatC= 6.93D-03 BMatP= 4.63D-02
 IDIUse=3 WtCom= 9.85D-01 WtEn= 1.50D-02
 Coeff-Com: -0.226D-02 0.363D-02-0.346D-03 0.381D-02 0.102D-01-0.119D-01
 Coeff-Com: -0.126D+00-0.762D+00 0.194D+00 0.862D+00 0.828D+00
 Coeff-En:   0.000D+00 0.000D+00 0.000D+00 0.000D+00 0.000D+00 0.000D+00
 Coeff-En:   0.000D+00 0.000D+00 0.000D+00 0.000D+00 0.100D+01
 Coeff:     -0.222D-02 0.358D-02-0.341D-03 0.375D-02 0.101D-01-0.118D-01
 Coeff:     -0.124D+00-0.750D+00 0.191D+00 0.849D+00 0.831D+00
 Gap=     0.206 Goal=   None    Shift=    0.000
 Gap=     0.206 Goal=   None    Shift=    0.000
 RMSDP=2.29D-05 MaxDP=4.42D-03 DE=-2.32D-03 OVMax= 2.76D-03

 Cycle  12  Pass 1  IDiag  1:
 RMSU=  8.13D-06    CP:  9.79D-01  6.48D-01  2.96D-01  6.21D-01  5.91D-01
                    CP:  5.52D-01  6.41D-01  1.40D+00  2.62D+00  1.99D+00
                    CP:  8.82D-01
 E= -5296.01368805465     Delta-E=       -0.000459088702 Rises=F Damp=F
 DIIS: error= 2.86D-04 at cycle  12 NSaved=  12.
 NSaved=12 IEnMin=12 EnMin= -5296.01368805465     IErMin=12 ErrMin= 2.86D-04
 ErrMax= 2.86D-04  0.00D+00 EMaxC= 1.00D-01 BMatC= 2.81D-04 BMatP= 6.93D-03
 IDIUse=3 WtCom= 9.97D-01 WtEn= 2.86D-03
 Coeff-Com: -0.762D-03 0.671D-03 0.117D-04 0.961D-03 0.679D-02 0.848D-03
 Coeff-Com: -0.333D-01-0.294D+00-0.204D-01 0.303D+00 0.442D+00 0.595D+00
 Coeff-En:   0.000D+00 0.000D+00 0.000D+00 0.000D+00 0.000D+00 0.000D+00
 Coeff-En:   0.000D+00 0.000D+00 0.000D+00 0.000D+00 0.000D+00 0.100D+01
 Coeff:     -0.760D-03 0.669D-03 0.117D-04 0.959D-03 0.677D-02 0.846D-03
 Coeff:     -0.332D-01-0.293D+00-0.203D-01 0.302D+00 0.440D+00 0.596D+00
 Gap=     0.206 Goal=   None    Shift=    0.000
 Gap=     0.206 Goal=   None    Shift=    0.000
 RMSDP=4.69D-06 MaxDP=7.90D-04 DE=-4.59D-04 OVMax= 5.49D-04

 Cycle  13  Pass 1  IDiag  1:
 RMSU=  2.46D-06    CP:  9.79D-01  6.48D-01  2.96D-01  6.21D-01  5.91D-01
                    CP:  5.52D-01  6.45D-01  1.39D+00  2.69D+00  2.10D+00
                    CP:  9.99D-01  7.57D-01
 E= -5296.01370628452     Delta-E=       -0.000018229868 Rises=F Damp=F
 DIIS: error= 5.91D-05 at cycle  13 NSaved=  13.
 NSaved=13 IEnMin=13 EnMin= -5296.01370628452     IErMin=13 ErrMin= 5.91D-05
 ErrMax= 5.91D-05  0.00D+00 EMaxC= 1.00D-01 BMatC= 1.29D-05 BMatP= 2.81D-04
 IDIUse=1 WtCom= 1.00D+00 WtEn= 0.00D+00
 Coeff-Com: -0.183D-03 0.834D-04 0.327D-04 0.320D-03 0.249D-02 0.700D-03
 Coeff-Com: -0.981D-02-0.953D-01-0.239D-01 0.926D-01 0.161D+00 0.295D+00
 Coeff-Com:  0.576D+00
 Coeff:     -0.183D-03 0.834D-04 0.327D-04 0.320D-03 0.249D-02 0.700D-03
 Coeff:     -0.981D-02-0.953D-01-0.239D-01 0.926D-01 0.161D+00 0.295D+00
 Coeff:      0.576D+00
 Gap=     0.206 Goal=   None    Shift=    0.000
 Gap=     0.206 Goal=   None    Shift=    0.000
 RMSDP=1.45D-06 MaxDP=1.63D-04 DE=-1.82D-05 OVMax= 1.33D-04

 Cycle  14  Pass 1  IDiag  1:
 RMSU=  1.15D-06    CP:  9.79D-01  6.48D-01  2.96D-01  6.21D-01  5.90D-01
                    CP:  5.52D-01  6.43D-01  1.39D+00  2.69D+00  2.11D+00
                    CP:  1.01D+00  7.88D-01  7.97D-01
 E= -5296.01370738571     Delta-E=       -0.000001101198 Rises=F Damp=F
 DIIS: error= 3.87D-06 at cycle  14 NSaved=  14.
 NSaved=14 IEnMin=14 EnMin= -5296.01370738571     IErMin=14 ErrMin= 3.87D-06
 ErrMax= 3.87D-06  0.00D+00 EMaxC= 1.00D-01 BMatC= 3.30D-07 BMatP= 1.29D-05
 IDIUse=1 WtCom= 1.00D+00 WtEn= 0.00D+00
 Coeff-Com:  0.350D-04-0.511D-04 0.107D-04 0.333D-04 0.965D-04-0.255D-05
 Coeff-Com: -0.451D-03-0.589D-03-0.567D-02-0.557D-03 0.546D-02 0.384D-01
 Coeff-Com:  0.239D+00 0.724D+00
 Coeff:      0.350D-04-0.511D-04 0.107D-04 0.333D-04 0.965D-04-0.255D-05
 Coeff:     -0.451D-03-0.589D-03-0.567D-02-0.557D-03 0.546D-02 0.384D-01
 Coeff:      0.239D+00 0.724D+00
 Gap=     0.206 Goal=   None    Shift=    0.000
 Gap=     0.206 Goal=   None    Shift=    0.000
 RMSDP=5.25D-07 MaxDP=3.84D-05 DE=-1.10D-06 OVMax= 1.16D-04

 Cycle  15  Pass 1  IDiag  1:
 RMSU=  3.86D-07    CP:  9.79D-01  6.48D-01  2.96D-01  6.21D-01  5.90D-01
                    CP:  5.52D-01  6.42D-01  1.39D+00  2.69D+00  2.11D+00
                    CP:  1.02D+00  8.05D-01  9.02D-01  9.69D-01
 E= -5296.01370745208     Delta-E=       -0.000000066364 Rises=F Damp=F
 DIIS: error= 6.74D-06 at cycle  15 NSaved=  15.
 NSaved=15 IEnMin=15 EnMin= -5296.01370745208     IErMin=14 ErrMin= 3.87D-06
 ErrMax= 6.74D-06  0.00D+00 EMaxC= 1.00D-01 BMatC= 2.38D-07 BMatP= 3.30D-07
 IDIUse=1 WtCom= 1.00D+00 WtEn= 0.00D+00
 Coeff-Com:  0.181D-04-0.430D-05 0.186D-05-0.357D-04-0.252D-03 0.182D-04
 Coeff-Com:  0.154D-02 0.151D-01 0.624D-03-0.148D-01-0.230D-01-0.233D-01
 Coeff-Com:  0.320D-01 0.397D+00 0.615D+00
 Coeff:      0.181D-04-0.430D-05 0.186D-05-0.357D-04-0.252D-03 0.182D-04
 Coeff:      0.154D-02 0.151D-01 0.624D-03-0.148D-01-0.230D-01-0.233D-01
 Coeff:      0.320D-01 0.397D+00 0.615D+00
 Gap=     0.206 Goal=   None    Shift=    0.000
 Gap=     0.206 Goal=   None    Shift=    0.000
 RMSDP=2.63D-07 MaxDP=2.11D-05 DE=-6.64D-08 OVMax= 5.94D-05

 Cycle  16  Pass 1  IDiag  1:
 RMSU=  1.61D-07    CP:  9.79D-01  6.48D-01  2.96D-01  6.21D-01  5.90D-01
                    CP:  5.52D-01  6.42D-01  1.39D+00  2.68D+00  2.11D+00
                    CP:  1.01D+00  8.16D-01  9.27D-01  1.05D+00  9.06D-01
 E= -5296.01370748171     Delta-E=       -0.000000029630 Rises=F Damp=F
 DIIS: error= 6.75D-07 at cycle  16 NSaved=  16.
 NSaved=16 IEnMin=16 EnMin= -5296.01370748171     IErMin=16 ErrMin= 6.75D-07
 ErrMax= 6.75D-07  0.00D+00 EMaxC= 1.00D-01 BMatC= 7.87D-09 BMatP= 2.38D-07
 IDIUse=1 WtCom= 1.00D+00 WtEn= 0.00D+00
 Coeff-Com: -0.375D-05 0.102D-04-0.110D-05-0.157D-04-0.643D-04 0.952D-04
 Coeff-Com:  0.780D-03 0.530D-02 0.588D-03-0.502D-02-0.862D-02-0.110D-01
 Coeff-Com: -0.228D-01 0.561D-01 0.240D+00 0.745D+00
 Coeff:     -0.375D-05 0.102D-04-0.110D-05-0.157D-04-0.643D-04 0.952D-04
 Coeff:      0.780D-03 0.530D-02 0.588D-03-0.502D-02-0.862D-02-0.110D-01
 Coeff:     -0.228D-01 0.561D-01 0.240D+00 0.745D+00
 Gap=     0.206 Goal=   None    Shift=    0.000
 Gap=     0.206 Goal=   None    Shift=    0.000
 RMSDP=1.04D-07 MaxDP=8.97D-06 DE=-2.96D-08 OVMax= 2.33D-05

 Cycle  17  Pass 1  IDiag  1:
 RMSU=  6.78D-08    CP:  9.79D-01  6.48D-01  2.96D-01  6.21D-01  5.90D-01
                    CP:  5.52D-01  6.42D-01  1.39D+00  2.68D+00  2.11D+00
                    CP:  1.01D+00  8.16D-01  9.30D-01  1.09D+00  1.01D+00
                    CP:  1.03D+00
 E= -5296.01370748364     Delta-E=       -0.000000001928 Rises=F Damp=F
 DIIS: error= 1.21D-06 at cycle  17 NSaved=  17.
 NSaved=17 IEnMin=17 EnMin= -5296.01370748364     IErMin=16 ErrMin= 6.75D-07
 ErrMax= 1.21D-06  0.00D+00 EMaxC= 1.00D-01 BMatC= 5.78D-09 BMatP= 7.87D-09
 IDIUse=1 WtCom= 1.00D+00 WtEn= 0.00D+00
 Coeff-Com: -0.292D-05 0.414D-05-0.690D-06-0.273D-05-0.288D-05 0.466D-04
 Coeff-Com:  0.207D-03 0.712D-03 0.750D-04-0.656D-03-0.139D-02-0.198D-02
 Coeff-Com: -0.146D-01-0.151D-01 0.433D-01 0.358D+00 0.631D+00
 Coeff:     -0.292D-05 0.414D-05-0.690D-06-0.273D-05-0.288D-05 0.466D-04
 Coeff:      0.207D-03 0.712D-03 0.750D-04-0.656D-03-0.139D-02-0.198D-02
 Coeff:     -0.146D-01-0.151D-01 0.433D-01 0.358D+00 0.631D+00
 Gap=     0.206 Goal=   None    Shift=    0.000
 Gap=     0.206 Goal=   None    Shift=    0.000
 RMSDP=3.56D-08 MaxDP=2.81D-06 DE=-1.93D-09 OVMax= 1.06D-05

 Cycle  18  Pass 1  IDiag  1:
 RMSU=  2.61D-08    CP:  9.79D-01  6.48D-01  2.96D-01  6.21D-01  5.90D-01
                    CP:  5.52D-01  6.42D-01  1.39D+00  2.68D+00  2.11D+00
                    CP:  1.02D+00  8.18D-01  9.33D-01  1.09D+00  1.04D+00
                    CP:  1.12D+00  9.34D-01
 E= -5296.01370748432     Delta-E=       -0.000000000686 Rises=F Damp=F
 DIIS: error= 4.67D-07 at cycle  18 NSaved=  18.
 NSaved=18 IEnMin=18 EnMin= -5296.01370748432     IErMin=18 ErrMin= 4.67D-07
 ErrMax= 4.67D-07  0.00D+00 EMaxC= 1.00D-01 BMatC= 9.73D-10 BMatP= 5.78D-09
 IDIUse=1 WtCom= 1.00D+00 WtEn= 0.00D+00
 Coeff-Com: -0.813D-06 0.859D-06-0.100D-06 0.106D-05 0.393D-05 0.523D-05
 Coeff-Com: -0.329D-05-0.360D-03-0.652D-04 0.324D-03 0.438D-03 0.517D-03
 Coeff-Com: -0.415D-02-0.161D-01-0.191D-01 0.423D-01 0.318D+00 0.678D+00
 Coeff:     -0.813D-06 0.859D-06-0.100D-06 0.106D-05 0.393D-05 0.523D-05
 Coeff:     -0.329D-05-0.360D-03-0.652D-04 0.324D-03 0.438D-03 0.517D-03
 Coeff:     -0.415D-02-0.161D-01-0.191D-01 0.423D-01 0.318D+00 0.678D+00
 Gap=     0.206 Goal=   None    Shift=    0.000
 Gap=     0.206 Goal=   None    Shift=    0.000
 RMSDP=1.85D-08 MaxDP=1.32D-06 DE=-6.86D-10 OVMax= 3.60D-06

 Cycle  19  Pass 1  IDiag  1:
 RMSU=  9.93D-09    CP:  9.79D-01  6.48D-01  2.96D-01  6.21D-01  5.90D-01
                    CP:  5.52D-01  6.42D-01  1.39D+00  2.68D+00  2.11D+00
                    CP:  1.02D+00  8.18D-01  9.33D-01  1.10D+00  1.05D+00
                    CP:  1.17D+00  1.06D+00  1.01D+00
 E= -5296.01370748456     Delta-E=       -0.000000000233 Rises=F Damp=F
 DIIS: error= 8.49D-08 at cycle  19 NSaved=  19.
 NSaved=19 IEnMin=19 EnMin= -5296.01370748456     IErMin=19 ErrMin= 8.49D-08
 ErrMax= 8.49D-08  0.00D+00 EMaxC= 1.00D-01 BMatC= 6.04D-11 BMatP= 9.73D-10
 IDIUse=1 WtCom= 1.00D+00 WtEn= 0.00D+00
 Coeff-Com:  0.179D-06-0.375D-06 0.315D-07 0.958D-06 0.143D-05-0.661D-05
 Coeff-Com: -0.364D-04-0.287D-03-0.388D-04 0.257D-03 0.410D-03 0.577D-03
 Coeff-Com:  0.385D-03-0.476D-02-0.158D-01-0.468D-01 0.444D-01 0.318D+00
 Coeff-Com:  0.704D+00
 Coeff:      0.179D-06-0.375D-06 0.315D-07 0.958D-06 0.143D-05-0.661D-05
 Coeff:     -0.364D-04-0.287D-03-0.388D-04 0.257D-03 0.410D-03 0.577D-03
 Coeff:      0.385D-03-0.476D-02-0.158D-01-0.468D-01 0.444D-01 0.318D+00
 Coeff:      0.704D+00
 Gap=     0.206 Goal=   None    Shift=    0.000
 Gap=     0.206 Goal=   None    Shift=    0.000
 RMSDP=7.50D-09 MaxDP=4.17D-07 DE=-2.33D-10 OVMax= 2.06D-06

 Error on total polarization charges =  0.03285
 SCF Done:  E(UMN15) =  -5296.01370748     A.U. after   19 cycles
            NFock= 19  Conv=0.75D-08     -V/T= 2.0935
 <Sx>= 0.0000 <Sy>= 0.0000 <Sz>= 0.0000 <S**2>=-0.0000 S=-0.0000
 <L.S>=  0.00000000000    
 KE= 4.843291511403D+03 PE=-3.464062987747D+04 EE= 1.349241062069D+04
 SMD-CDS (non-electrostatic) energy       (kcal/mol) =       2.70
 (included in total energy above)
 Annihilation of the first spin contaminant:
 S**2 before annihilation    -0.0000,   after    -0.0000
 Leave Link  502 at Fri May  2 00:11:07 2025, MaxMem= 82678120448 cpu:           28793.7 elap:            1230.2
 (Enter /sysapps/ubuntu-applications/gaussian-new/avx/g16/l801.exe)
 DoSCS=F DFT=T ScalE2(SS,OS)=  1.000000  1.000000
 Range of M.O.s used for correlation:     1   888
 NBasis=   888 NAE=   222 NBE=   222 NFC=     0 NFV=     0
 NROrb=    888 NOA=   222 NOB=   222 NVA=   666 NVB=   666

 **** Warning!!: The largest alpha MO coefficient is  0.12567566D+02


 **** Warning!!: The largest beta MO coefficient is  0.12567566D+02

 Leave Link  801 at Fri May  2 00:11:07 2025, MaxMem= 82678120448 cpu:               2.1 elap:               0.2
 (Enter /sysapps/ubuntu-applications/gaussian-new/avx/g16/l1101.exe)
 Using compressed storage, NAtomX=    67.
 Will process     68 centers per pass.
   1 Symmetry operations used in ECPInt.
 ECPInt:  NShTT=   73153 NPrTT=  279412 LenC2=   56026 LenP2D=  131149.
 LDataN:  DoStor=T MaxTD1=10 Len=  848
 Leave Link 1101 at Fri May  2 00:11:23 2025, MaxMem= 82678120448 cpu:             392.4 elap:              16.5
 (Enter /sysapps/ubuntu-applications/gaussian-new/avx/g16/l1102.exe)
 Symmetrizing basis deriv contribution to polar:
 IMax=3 JMax=2 DiffMx= 0.00D+00
 Leave Link 1102 at Fri May  2 00:11:25 2025, MaxMem= 82678120448 cpu:               7.4 elap:               0.9
 (Enter /sysapps/ubuntu-applications/gaussian-new/avx/g16/l1110.exe)
 Forming Gx(P) for the SCF density, NAtomX=    67.
 Integral derivatives from FoFJK, PRISM(SPDF).
 Do as many integral derivatives as possible in FoFJK.
 G2DrvN: MDV=   82678114550.
 G2DrvN: will do    68 centers at a time, making    1 passes.
 Calling FoFCou, ICntrl=  3107 FMM=T I1Cent=   0 AccDes= 0.00D+00.
 FoFJK:  IHMeth= 1 ICntrl=    3107 DoSepK=F KAlg= 0 I1Cent=           0 FoldK=F
 IRaf=         0 NMat=       1 IRICut=       1 DoRegI=T DoRafI=F ISym2E= 0 IDoP0=0 IntGTp=1.
 FoFCou: FMM=T IPFlag=           0 FMFlag=      100000 FMFlg1=        2001
         NFxFlg=           0 DoJE=F BraDBF=F KetDBF=F FulRan=T
         wScrn=  0.000000 ICntrl=      3107 IOpCl=  1 I1Cent=           0 NGrid=           0
         NMat0=    1 NMatS0=      1 NMatT0=    0 NMatD0=    1 NMtDS0=    0 NMtDT0=    0
 Symmetry not used in FoFCou.
 FMM levels:  10  Number of levels for PrismC:   9
 Defaulting to unpruned grid for atomic number  71.
 Defaulting to unpruned grid for atomic number  71.
 Defaulting to unpruned grid for atomic number  71.
 Defaulting to unpruned grid for atomic number  71.
 Defaulting to unpruned grid for atomic number  71.
 Defaulting to unpruned grid for atomic number  71.
 Defaulting to unpruned grid for atomic number  71.
 Defaulting to unpruned grid for atomic number  71.
 Defaulting to unpruned grid for atomic number  71.
 Defaulting to unpruned grid for atomic number  71.
 Defaulting to unpruned grid for atomic number  71.
 Defaulting to unpruned grid for atomic number  71.
 Defaulting to unpruned grid for atomic number  71.
 Defaulting to unpruned grid for atomic number  71.
 Defaulting to unpruned grid for atomic number  71.
 Defaulting to unpruned grid for atomic number  71.
 Defaulting to unpruned grid for atomic number  71.
 Defaulting to unpruned grid for atomic number  71.
 Defaulting to unpruned grid for atomic number  71.
 Defaulting to unpruned grid for atomic number  71.
 Defaulting to unpruned grid for atomic number  71.
 Defaulting to unpruned grid for atomic number  71.
 Defaulting to unpruned grid for atomic number  71.
 Defaulting to unpruned grid for atomic number  71.
 NEqPCM:  Using equilibrium solvation (IEInf=0, Eps=  10.1250, EpsInf=   2.0874)
 G2PCM: DoFxE=T DoFxN=T DoGrad=T DoDP/DQ/DG/TGxP=FFFF NFrqRd=   0 IEInf=0 SqF1=F DoCFld=F IF1Alg=4.
 GePol: Maximum number of non-zero 1st derivatives   =     272
 End of G2Drv F.D. properties file   721 does not exist.
 End of G2Drv F.D. properties file   722 does not exist.
 End of G2Drv F.D. properties file   788 does not exist.
 Leave Link 1110 at Fri May  2 01:09:49 2025, MaxMem= 82678120448 cpu:           83723.9 elap:            3504.1
 (Enter /sysapps/ubuntu-applications/gaussian-new/avx/g16/l1002.exe)
 Minotr:  UHF open shell wavefunction.
          IDoAtm=11111111111111111111111111111111111111111111111111
          IDoAtm=11111111111111111
 NEqPCM:  Using equilibrium solvation (IEInf=0, Eps=  10.1250, EpsInf=   2.0874)
          Direct CPHF calculation.
          Differentiating once with respect to electric field.
                with respect to dipole field.
          Differentiating once with respect to nuclear coordinates.
          Requested convergence is 1.0D-08 RMS, and 1.0D-07 maximum.
          Secondary convergence is 1.0D-12 RMS, and 1.0D-12 maximum.
          NewPWx=T KeepS1=F KeepF1=F KeepIn=T MapXYZ=F SortEE=F KeepMc=T.
 Defaulting to unpruned grid for atomic number  71.
        20765 words used for storage of precomputed grid.
 Two-electron integrals replicated using symmetry.
          MDV=   82678120448 using IRadAn=       1.
          Solving linear equations simultaneously, MaxMat=      72.
 FoF2E skips out because all densities are zero.
 CalDSu exits because no D1Ps are significant.
 FoFJK:  IHMeth= 1 ICntrl=       0 DoSepK=F KAlg= 0 I1Cent=           0 FoldK=F
 IRaf= 800000000 NMat=      72 IRICut=       1 DoRegI=T DoRafI=F ISym2E= 2 IDoP0=3 IntGTp=3.
 Defaulting to unpruned grid for atomic number  71.
 Defaulting to unpruned grid for atomic number  71.
 Defaulting to unpruned grid for atomic number  71.
 Defaulting to unpruned grid for atomic number  71.
 Defaulting to unpruned grid for atomic number  71.
 Defaulting to unpruned grid for atomic number  71.
 Defaulting to unpruned grid for atomic number  71.
 Defaulting to unpruned grid for atomic number  71.
 Defaulting to unpruned grid for atomic number  71.
 Defaulting to unpruned grid for atomic number  71.
 Defaulting to unpruned grid for atomic number  71.
 Defaulting to unpruned grid for atomic number  71.
 Defaulting to unpruned grid for atomic number  71.
 Defaulting to unpruned grid for atomic number  71.
 Defaulting to unpruned grid for atomic number  71.
 Defaulting to unpruned grid for atomic number  71.
 Defaulting to unpruned grid for atomic number  71.
 Defaulting to unpruned grid for atomic number  71.
 Defaulting to unpruned grid for atomic number  71.
 Defaulting to unpruned grid for atomic number  71.
 Defaulting to unpruned grid for atomic number  71.
 Defaulting to unpruned grid for atomic number  71.
 Defaulting to unpruned grid for atomic number  71.
 Defaulting to unpruned grid for atomic number  71.
          There are   204 degrees of freedom in the 1st order CPHF.  IDoFFX=6 NUNeed=     3.
    204 vectors produced by pass  0 Test12= 2.96D-13 1.00D-09 XBig12= 4.85D+02 4.08D+00.
 AX will form    72 AO Fock derivatives at one time.
    201 vectors produced by pass  1 Test12= 2.96D-13 1.00D-09 XBig12= 9.10D+01 6.27D-01.
    201 vectors produced by pass  2 Test12= 2.96D-13 1.00D-09 XBig12= 3.10D+00 1.03D-01.
    201 vectors produced by pass  3 Test12= 2.96D-13 1.00D-09 XBig12= 4.60D-02 1.11D-02.
    201 vectors produced by pass  4 Test12= 2.96D-13 1.00D-09 XBig12= 4.40D-04 1.61D-03.
    201 vectors produced by pass  5 Test12= 2.96D-13 1.00D-09 XBig12= 2.39D-06 7.22D-05.
    170 vectors produced by pass  6 Test12= 2.96D-13 1.00D-09 XBig12= 1.01D-08 4.37D-06.
     62 vectors produced by pass  7 Test12= 2.96D-13 1.00D-09 XBig12= 3.95D-11 2.90D-07.
      4 vectors produced by pass  8 Test12= 2.96D-13 1.00D-09 XBig12= 1.74D-13 1.86D-08.
      3 vectors produced by pass  9 Test12= 2.96D-13 1.00D-09 XBig12= 2.28D-15 1.96D-09.
 InvSVY:  IOpt=1 It=  1 EMax= 1.78D-14
 Solved reduced A of dimension  1448 with   204 vectors.
 FullF1:  Do perturbations      1 to       3.
 Isotropic polarizability for W=    0.000000      448.69 Bohr**3.
 End of Minotr F.D. properties file   721 does not exist.
 End of Minotr F.D. properties file   722 does not exist.
 End of Minotr F.D. properties file   788 does not exist.
 Leave Link 1002 at Fri May  2 04:30:46 2025, MaxMem= 82678120448 cpu:          288532.2 elap:           12053.9
 (Enter /sysapps/ubuntu-applications/gaussian-new/avx/g16/l601.exe)
 Copying SCF densities to generalized density rwf, IOpCl= 1 IROHF=0.

 **********************************************************************

            Population analysis using the SCF density.

 **********************************************************************

 Orbital symmetries:
 Alpha Orbitals:
       Occupied  (A) (A) (A) (A) (A) (A) (A) (A) (A) (A) (A) (A)
                 (A) (A) (A) (A) (A) (A) (A) (A) (A) (A) (A) (A)
                 (A) (A) (A) (A) (A) (A) (A) (A) (A) (A) (A) (A)
                 (A) (A) (A) (A) (A) (A) (A) (A) (A) (A) (A) (A)
                 (A) (A) (A) (A) (A) (A) (A) (A) (A) (A) (A) (A)
                 (A) (A) (A) (A) (A) (A) (A) (A) (A) (A) (A) (A)
                 (A) (A) (A) (A) (A) (A) (A) (A) (A) (A) (A) (A)
                 (A) (A) (A) (A) (A) (A) (A) (A) (A) (A) (A) (A)
                 (A) (A) (A) (A) (A) (A) (A) (A) (A) (A) (A) (A)
                 (A) (A) (A) (A) (A) (A) (A) (A) (A) (A) (A) (A)
                 (A) (A) (A) (A) (A) (A) (A) (A) (A) (A) (A) (A)
                 (A) (A) (A) (A) (A) (A) (A) (A) (A) (A) (A) (A)
                 (A) (A) (A) (A) (A) (A) (A) (A) (A) (A) (A) (A)
                 (A) (A) (A) (A) (A) (A) (A) (A) (A) (A) (A) (A)
                 (A) (A) (A) (A) (A) (A) (A) (A) (A) (A) (A) (A)
                 (A) (A) (A) (A) (A) (A) (A) (A) (A) (A) (A) (A)
                 (A) (A) (A) (A) (A) (A) (A) (A) (A) (A) (A) (A)
                 (A) (A) (A) (A) (A) (A) (A) (A) (A) (A) (A) (A)
                 (A) (A) (A) (A) (A) (A)
       Virtual   (A) (A) (A) (A) (A) (A) (A) (A) (A) (A) (A) (A)
                 (A) (A) (A) (A) (A) (A) (A) (A) (A) (A) (A) (A)
                 (A) (A) (A) (A) (A) (A) (A) (A) (A) (A) (A) (A)
                 (A) (A) (A) (A) (A) (A) (A) (A) (A) (A) (A) (A)
                 (A) (A) (A) (A) (A) (A) (A) (A) (A) (A) (A) (A)
                 (A) (A) (A) (A) (A) (A) (A) (A) (A) (A) (A) (A)
                 (A) (A) (A) (A) (A) (A) (A) (A) (A) (A) (A) (A)
                 (A) (A) (A) (A) (A) (A) (A) (A) (A) (A) (A) (A)
                 (A) (A) (A) (A) (A) (A) (A) (A) (A) (A) (A) (A)
                 (A) (A) (A) (A) (A) (A) (A) (A) (A) (A) (A) (A)
                 (A) (A) (A) (A) (A) (A) (A) (A) (A) (A) (A) (A)
                 (A) (A) (A) (A) (A) (A) (A) (A) (A) (A) (A) (A)
                 (A) (A) (A) (A) (A) (A) (A) (A) (A) (A) (A) (A)
                 (A) (A) (A) (A) (A) (A) (A) (A) (A) (A) (A) (A)
                 (A) (A) (A) (A) (A) (A) (A) (A) (A) (A) (A) (A)
                 (A) (A) (A) (A) (A) (A) (A) (A) (A) (A) (A) (A)
                 (A) (A) (A) (A) (A) (A) (A) (A) (A) (A) (A) (A)
                 (A) (A) (A) (A) (A) (A) (A) (A) (A) (A) (A) (A)
                 (A) (A) (A) (A) (A) (A) (A) (A) (A) (A) (A) (A)
                 (A) (A) (A) (A) (A) (A) (A) (A) (A) (A) (A) (A)
                 (A) (A) (A) (A) (A) (A) (A) (A) (A) (A) (A) (A)
                 (A) (A) (A) (A) (A) (A) (A) (A) (A) (A) (A) (A)
                 (A) (A) (A) (A) (A) (A) (A) (A) (A) (A) (A) (A)
                 (A) (A) (A) (A) (A) (A) (A) (A) (A) (A) (A) (A)
                 (A) (A) (A) (A) (A) (A) (A) (A) (A) (A) (A) (A)
                 (A) (A) (A) (A) (A) (A) (A) (A) (A) (A) (A) (A)
                 (A) (A) (A) (A) (A) (A) (A) (A) (A) (A) (A) (A)
                 (A) (A) (A) (A) (A) (A) (A) (A) (A) (A) (A) (A)
                 (A) (A) (A) (A) (A) (A) (A) (A) (A) (A) (A) (A)
                 (A) (A) (A) (A) (A) (A) (A) (A) (A) (A) (A) (A)
                 (A) (A) (A) (A) (A) (A) (A) (A) (A) (A) (A) (A)
                 (A) (A) (A) (A) (A) (A) (A) (A) (A) (A) (A) (A)
                 (A) (A) (A) (A) (A) (A) (A) (A) (A) (A) (A) (A)
                 (A) (A) (A) (A) (A) (A) (A) (A) (A) (A) (A) (A)
                 (A) (A) (A) (A) (A) (A) (A) (A) (A) (A) (A) (A)
                 (A) (A) (A) (A) (A) (A) (A) (A) (A) (A) (A) (A)
                 (A) (A) (A) (A) (A) (A) (A) (A) (A) (A) (A) (A)
                 (A) (A) (A) (A) (A) (A) (A) (A) (A) (A) (A) (A)
                 (A) (A) (A) (A) (A) (A) (A) (A) (A) (A) (A) (A)
                 (A) (A) (A) (A) (A) (A) (A) (A) (A) (A) (A) (A)
                 (A) (A) (A) (A) (A) (A) (A) (A) (A) (A) (A) (A)
                 (A) (A) (A) (A) (A) (A) (A) (A) (A) (A) (A) (A)
                 (A) (A) (A) (A) (A) (A) (A) (A) (A) (A) (A) (A)
                 (A) (A) (A) (A) (A) (A) (A) (A) (A) (A) (A) (A)
                 (A) (A) (A) (A) (A) (A) (A) (A) (A) (A) (A) (A)
                 (A) (A) (A) (A) (A) (A) (A) (A) (A) (A) (A) (A)
                 (A) (A) (A) (A) (A) (A) (A) (A) (A) (A) (A) (A)
                 (A) (A) (A) (A) (A) (A) (A) (A) (A) (A) (A) (A)
                 (A) (A) (A) (A) (A) (A) (A) (A) (A) (A) (A) (A)
                 (A) (A) (A) (A) (A) (A) (A) (A) (A) (A) (A) (A)
                 (A) (A) (A) (A) (A) (A) (A) (A) (A) (A) (A) (A)
                 (A) (A) (A) (A) (A) (A) (A) (A) (A) (A) (A) (A)
                 (A) (A) (A) (A) (A) (A) (A) (A) (A) (A) (A) (A)
                 (A) (A) (A) (A) (A) (A) (A) (A) (A) (A) (A) (A)
                 (A) (A) (A) (A) (A) (A) (A) (A) (A) (A) (A) (A)
                 (A) (A) (A) (A) (A) (A)
 Beta  Orbitals:
       Occupied  (A) (A) (A) (A) (A) (A) (A) (A) (A) (A) (A) (A)
                 (A) (A) (A) (A) (A) (A) (A) (A) (A) (A) (A) (A)
                 (A) (A) (A) (A) (A) (A) (A) (A) (A) (A) (A) (A)
                 (A) (A) (A) (A) (A) (A) (A) (A) (A) (A) (A) (A)
                 (A) (A) (A) (A) (A) (A) (A) (A) (A) (A) (A) (A)
                 (A) (A) (A) (A) (A) (A) (A) (A) (A) (A) (A) (A)
                 (A) (A) (A) (A) (A) (A) (A) (A) (A) (A) (A) (A)
                 (A) (A) (A) (A) (A) (A) (A) (A) (A) (A) (A) (A)
                 (A) (A) (A) (A) (A) (A) (A) (A) (A) (A) (A) (A)
                 (A) (A) (A) (A) (A) (A) (A) (A) (A) (A) (A) (A)
                 (A) (A) (A) (A) (A) (A) (A) (A) (A) (A) (A) (A)
                 (A) (A) (A) (A) (A) (A) (A) (A) (A) (A) (A) (A)
                 (A) (A) (A) (A) (A) (A) (A) (A) (A) (A) (A) (A)
[...]
 18362,-0.00179156,0.00004129,-0.00000094,-0.00005939,-0.00000758,0.000
 04561,-0.00002829,0.00002170,-0.00009028,0.00002496,0.00007992,-0.0005
 6549,0.00037007,-0.00053429,-0.00082799,-0.00012648,0.00035998,-0.0000
 2954,-0.00061918,0.00001448,0.00001608,0.00002112,0.00002942,0.0000597
 4,0.00006356,-0.00000233,0.00004150,0.00000928,-0.00000269,-0.00001597
 ,0.00002750,-0.00001179,0.00001750,-0.00003696,-0.00061327,0.00004738,
 -0.00045461,-0.00033376,-0.00249504,0.00032661,0.00029125,0.00156509,-
 0.00069230,-0.00003848,-0.00025928,0.00000010,-0.00042481,-0.00021242,
 0.00034904,0.00007186,0.00038379,0.00010926,-0.00011718,-0.00012226,0.
 00001763,-0.00000056,-0.00001256,0.00002191,-0.00000955,0.00001975,-0.
 00002653,0.00001089,-0.00002745,0.00001614,-0.11705369,-0.14570074,0.0
 7307818,0.12745754,0.15800312,-0.00013685,0.00020792,0.00037211,-0.000
 02406,-0.00004906,0.00002070,0.00001281,0.00000155,-0.00000179,0.00002
 453,-0.00002206,0.00001539,0.00000112,-0.00003998,0.00002499,0.0001596
 9,-0.00007099,-0.00002502,-0.00097257,-0.00402192,0.00053401,0.0131931
 1,0.01652772,-0.00849208,0.00090495,0.00023538,0.00053501,-0.00002882,
 0.00000881,0.00001154,0.00002066,-0.00000963,-0.00000057,0.00000825,-0
 .00000503,0.00000310,0.00001764,-0.00001512,0.00001279,-0.00000955,0.0
 0001529,-0.00001422,-0.00036462,-0.00004449,-0.00011111,-0.00016101,-0
 .00168084,-0.00063533,-0.00001659,0.00000876,0.00000674,0.00000221,0.0
 0001732,-0.00002782,0.00000315,0.00009039,-0.00000610,0.00016709,-0.00
 003049,-0.00018135,0.00004075,-0.00001105,-0.00001894,-0.00003238,0.00
 000179,0.00002142,-0.00005198,0.00006311,0.00002291,-0.00003863,-0.000
 03340,0.00005551,-0.00003011,0.00000360,0.00001063,-0.00000863,0.00000
 103,0.00000504,0.00002253,-0.00003644,-0.00004529,0.00000618,0.0000013
 6,-0.00001868,0.00000077,0.00000113,0.00001381,0.00001870,0.00000324,0
 .00000623,0.00040944,0.00045651,-0.00004455,0.00000004,-0.00000296,-0.
 00000664,0.00000151,0.00000262,-0.00000395,-0.00000078,0.00000043,-0.0
 0000383,-0.00000627,-0.00000040,-0.00000310,-0.00000967,0.00000344,-0.
 00000056,-0.00000524,-0.00000424,-0.00000056,-0.00034506,-0.00024578,0
 .00005373,-0.00009095,-0.00012000,-0.00004842,-0.00015795,-0.00007313,
 0.00001928,0.00019852,-0.00007817,-0.00155921,-0.00429432,-0.00068845,
 -0.00292202,0.00002339,-0.00027503,0.00019481,-0.00012226,-0.00002364,
 0.00004076,-0.00001318,0.00016189,-0.00004698,0.00005725,-0.00008218,0
 .00030759,0.00052446,-0.00021842,0.00029898,0.00002404,-0.00026600,-0.
 00030947,0.00001707,0.00001940,0.00001265,-0.00000754,0.00008493,-0.00
 000342,-0.00003220,0.00002492,0.00002623,0.00007268,0.00002373,-0.0000
 2386,0.00001503,-0.00003088,0.00010436,-0.00020294,-0.00015104,-0.0005
 9290,-0.00032803,-0.00103908,0.00013895,-0.00011925,0.00080675,-0.0009
 9335,-0.00004091,-0.00028348,0.00001962,-0.00004013,-0.00016152,0.0002
 6330,-0.00036924,0.00046455,0.00032732,-0.00019996,-0.00010421,0.00012
 913,0.00000980,0.00001683,0.00001140,-0.00001185,0.00000313,-0.0000451
 8,0.00001809,-0.00004386,0.00004449,0.08499647,0.07686720,-0.09569082,
 -0.08649539,-0.07895863,0.10200738,0.00007642,0.00011002,0.00013596,-0
 .00001683,0.00004314,0.00009706,-0.00001809,0.00002137,0.00001758,0.00
 000029,-0.00002518,0.00002497,0.00003291,-0.00003026,-0.00000471,0.000
 04752,0.00006540,-0.00009484,-0.00056809,-0.00112396,-0.00024486,-0.01
 273056,0.01261093,-0.00574096,-0.00002162,0.00014531,0.00036206,-0.000
 02408,-0.00002965,0.00001282,0.00000502,-0.00000525,-0.00000297,0.0000
 0414,-0.00000357,0.00000336,0.00000644,-0.00000613,0.00000809,-0.00000
 108,0.00000307,0.00000385,0.00004614,-0.00008528,0.00001976,-0.0005371
 0,0.00058465,0.00372730,0.00003111,-0.00000480,-0.00002337,0.00001133,
 -0.00002019,0.00002026,0.00040161,0.00011434,0.00002328,-0.00049793,-0
 .00024527,-0.00015906,-0.00004412,0.00000704,0.00004013,-0.00005074,0.
 00003039,-0.00005326,0.00017142,-0.00009537,0.00005136,0.00008748,0.00
 010423,0.00000264,0.00004701,-0.00002542,-0.00002671,0.00000884,-0.000
 00279,-0.00001607,0.00003795,-0.00002634,0.00001211,0.00000681,-0.0000
 0989,0.00001507,-0.00002032,0.00001675,0.00000459,-0.00002510,-0.00000
 603,0.00000605,-0.00053838,0.00028152,-0.00035971,0.00000501,-0.000006
 18,-0.00000319,0.00000624,-0.00000342,-0.00000165,0.00001195,-0.000009
 86,0.00000407,0.00000908,-0.00000063,-0.00000749,0.00001285,-0.0000028
 9,-0.00000117,0.00000909,0.00000569,-0.00000188,-0.00008762,-0.0002523
 1,0.00013015,0.00011953,0.00003608,0.00012047,0.00035032,-0.00012160,0
 .00002330,-0.00004442,-0.00068554,-0.00095712,-0.00025318,-0.00033645,
 0.00012767,0.00012503,-0.00000574,0.00015007,0.00000026,-0.00002385,0.
 00002600,-0.00000085,0.00004314,-0.00003414,0.00003326,-0.00013262,0.0
 0013173,-0.00041822,-0.00009171,-0.00008358,0.00004800,0.00007068,-0.0
 0012771,-0.00000041,0.00001347,0.00000465,0.00000421,0.00001764,0.0000
 0354,0.00000570,0.00000388,-0.00000742,-0.00000103,0.00001289,-0.00000
 106,-0.00000577,-0.00000733,0.00002504,-0.00010318,0.00001577,-0.00005
 724,0.00022773,-0.00044734,0.00035382,-0.00011072,0.00049416,-0.000426
 98,0.00000662,-0.00013253,0.00000975,-0.00020233,0.00031895,0.00014651
 ,-0.00067936,-0.00136617,-0.00101594,-0.00003908,-0.00002200,-0.000021
 73,0.00002154,-0.00000322,0.00001785,0.00000693,-0.00000126,-0.0000126
 7,0.00000029,-0.00000392,0.00000175,-0.11260316,0.11538677,-0.06657345
 ,0.01053999,-0.01556986,0.00718099,0.12353748,-0.00011031,0.00014964,-
 0.00001533,0.00000580,-0.00004901,0.00002714,0.00001411,-0.00000765,-0
 .00000830,0.00002353,-0.00001548,0.00000505,-0.00000474,-0.00001823,0.
 00001107,0.00005079,-0.00005751,-0.00000890,0.00167182,0.00015601,-0.0
 0130722,0.00423319,-0.01005319,0.00908711,-0.00001204,0.00009588,-0.00
 031608,-0.00000024,0.00000481,0.00001342,0.00001203,-0.00000588,0.0000
 0132,0.00000667,-0.00000211,0.00000265,0.00001142,-0.00000650,0.000009
 99,-0.00000253,0.00001831,-0.00001743,-0.00020194,-0.00001034,-0.00006
 233,0.00130372,-0.00048813,-0.00177018,0.00003609,-0.00000050,-0.00005
 145,0.00003959,-0.00003628,0.00002423,0.00009522,0.00007742,-0.0000412
 5,-0.00000467,0.00000775,0.00000020,-0.00003949,-0.00001517,0.00005158
 ,-0.00005736,0.00006869,-0.00005861,0.00000394,0.00002059,0.00001072,0
 .00001113,0.00000559,0.00000394,0.00002674,0.00001407,-0.00004050,0.00
 000662,0.00000095,-0.00001746,0.00005224,-0.00005816,0.00001309,0.0000
 0324,-0.00001828,0.00002019,-0.00002355,0.00001667,0.00001045,-0.00002
 223,-0.00000289,-0.00000051,-0.00019666,0.00029662,-0.00013560,0.00000
 497,-0.00000715,-0.00000657,0.00000727,-0.00000204,-0.00000250,0.00001
 341,-0.00001091,0.00000437,0.00000567,0.00000087,-0.00000154,0.0000094
 6,-0.00000293,-0.00000049,0.00000751,0.00000576,-0.00000076,-0.0000204
 8,-0.00016961,0.00011648,0.00004008,-0.00002728,0.00002072,0.00012213,
 -0.00016163,-0.00005280,-0.00101458,-0.00059605,-0.00019700,-0.0003919
 4,-0.00037389,-0.00004006,0.00029075,-0.00002281,0.00024383,-0.0000586
 7,0.00001103,0.00006681,-0.00005406,0.00007708,-0.00005810,0.00010131,
 -0.00010822,0.00009332,-0.00046048,-0.00009603,-0.00012045,-0.00001449
 ,0.00008330,-0.00010952,-0.00001434,0.00000416,-0.00000542,0.00000583,
 0.00002177,-0.00000220,0.00000618,0.00000522,-0.00001356,0.00003800,0.
 00001131,-0.00003089,0.00002565,-0.00001280,0.00006142,-0.00006052,0.0
 0002962,-0.00031322,0.00026457,-0.00041803,0.00045072,-0.00002461,0.00
 025870,0.00041250,0.00003574,0.00009379,-0.00002051,-0.00037996,-0.000
 12429,0.00026533,-0.00032134,0.00115040,0.00128519,0.00002986,0.000015
 36,0.00000894,0.00000400,0.00003266,-0.00003232,-0.00000317,-0.0000131
 0,-0.00002335,-0.00001765,0.00000501,-0.00000501,0.11449620,-0.2069753
 2,0.08534784,0.00981280,-0.01148755,0.00525181,-0.12285804,0.21817624,
 0.00002196,0.00006083,-0.00002312,0.00000300,-0.00001121,0.00008967,0.
 00002483,-0.00002823,0.00000483,0.00001989,-0.00001053,-0.00000783,0.0
 0000185,0.00001675,-0.00001149,0.00002562,0.00003399,-0.00003632,0.000
 69028,0.00141302,-0.00142672,0.00755733,-0.01690295,0.01519770,-0.0001
 5611,0.00004086,-0.00010006,0.00000284,0.00001095,-0.00000491,0.000010
 03,-0.00000326,0.00000064,0.00000421,-0.00000130,-0.00000039,0.0000023
 4,-0.00000428,0.00000331,-0.00000336,-0.00000174,-0.00003006,-0.000142
 22,0.00005805,-0.00038883,0.00652893,0.00036462,-0.00438910,0.00011925
 ,-0.00000708,-0.00016152,0.00011125,-0.00011958,0.00007138,-0.00009783
 ,0.00020226,0.00001056,-0.00000187,-0.00018402,-0.00000650,-0.00011345
 ,-0.00005652,0.00016933,-0.00013302,0.00021141,-0.00014297,0.00000257,
 0.00013690,0.00004628,0.00000605,0.00006215,-0.00001169,0.00007352,0.0
 0006303,-0.00012218,0.00002135,0.00000814,-0.00006192,0.00010429,-0.00
 014190,0.00004830,0.00000380,-0.00005715,0.00006021,-0.00006674,0.0000
 3474,0.00002563,-0.00006689,-0.00001828,-0.00000501,-0.00020732,0.0002
 7722,-0.00022625,0.00001399,-0.00001755,-0.00001869,0.00002313,-0.0000
 0111,-0.00000556,0.00003407,-0.00002526,0.00001159,0.00001820,0.000006
 16,0.00000174,0.00002855,-0.00001101,-0.00000152,0.00002117,0.00002498
 ,-0.00000277,-0.00012842,-0.00022014,0.00011171,0.00003173,-0.00002871
 ,0.00004243,0.00019296,-0.00004472,0.00002829,-0.00105509,-0.00085112,
 -0.00042879,0.00017199,0.00013517,0.00013279,0.00033822,0.00009781,-0.
 00000456,-0.00002924,0.00005123,0.00006730,-0.00005948,-0.00003883,-0.
 00006301,0.00011925,-0.00008263,0.00010111,-0.00019517,0.00003091,-0.0
 0001695,-0.00003197,0.00004846,-0.00011188,-0.00001471,0.00001456,-0.0
 0000051,-0.00000370,-0.00000620,0.00000197,0.00000573,0.00000075,-0.00
 001196,0.00003411,-0.00000193,-0.00003681,0.00002420,0.00000551,0.0000
 2218,-0.00005682,-0.00008961,-0.00015327,0.00011440,-0.00013733,0.0002
 8979,-0.00027304,0.00021103,0.00077127,0.00005598,0.00013591,0.0000150
 1,-0.00097400,-0.00020350,0.00053048,-0.00066403,-0.00025120,-0.001726
 99,0.00006462,0.00008059,-0.00002220,0.00000914,0.00003682,-0.00008600
 ,-0.00000323,-0.00000853,-0.00001521,-0.00002495,0.00001553,-0.0000192
 6,-0.06383827,0.08556677,-0.09290201,-0.00815823,0.00885506,-0.0046753
 0,0.06590206,-0.09381369,0.09481213,0.00011246,-0.00005133,-0.00013510
 ,0.00000921,0.00000482,0.00000685,-0.00000081,-0.00000096,-0.00000347,
 -0.00000660,0.00000615,-0.00000144,0.00000657,0.00001146,-0.00001359,-
 0.00005910,0.00002967,0.00001148,-0.00282221,0.00109936,0.00234213,0.0
 1149317,0.00779709,0.01605249,0.00095198,0.00030312,0.00006537,0.00001
 640,-0.00000230,-0.00000423,-0.00000534,0.00000123,-0.00000037,-0.0000
 0190,0.00000087,-0.00000118,-0.00000579,0.00000380,-0.00000341,-0.0000
 0036,-0.00000240,-0.00000024,-0.00038315,0.00002686,-0.00011622,0.0006
 5625,-0.00111376,-0.00109356,0.00000869,-0.00000932,-0.00002157,0.0000
 3233,-0.00008518,-0.00003113,0.00016618,-0.00009185,-0.00035565,-0.000
 43603,-0.00001726,0.00053208,-0.00002302,0.00003041,0.00005438,0.00001
 744,0.00008973,0.00003610,0.00015349,-0.00010923,-0.00013559,0.0001396
 6,0.00016442,-0.00021833,0.00001947,-0.00002841,-0.00005743,0.00000716
 ,-0.00000450,-0.00002024,-0.00000949,-0.00004215,-0.00002262,0.0000025
 5,-0.00001852,-0.00000889,-0.00002391,0.00001612,0.00000745,-0.0000236
 6,-0.00000215,0.00002069,-0.00002751,-0.00288972,0.00139769,0.00000589
 ,-0.00001076,-0.00001429,0.00000390,-0.00000548,-0.00000149,0.00001027
 ,-0.00000798,0.00000275,0.00000966,-0.00000110,-0.00001702,0.00001085,
 -0.00000485,-0.00000389,0.00000524,0.00000434,-0.00000392,-0.00219506,
 -0.00006868,-0.00214734,0.00020442,0.00054006,0.00000422,-0.00068799,0
 .00007266,-0.00001739,-0.00038853,-0.00019751,0.00041940,0.00025764,0.
 00003126,-0.00036167,-0.00007519,0.00009320,-0.00015670,0.00003497,0.0
 0002274,-0.00000491,-0.00001447,-0.00007970,0.00001469,0.00005662,0.00
 001261,-0.00002997,-0.00004185,-0.00000194,-0.00000949,-0.00000896,0.0
 0002683,0.00003594,0.00000055,-0.00001029,-0.00000343,0.00000244,-0.00
 001415,-0.00000528,0.00000205,-0.00000273,-0.00000712,-0.00001058,-0.0
 0000372,0.00000400,0.00000986,0.00001270,-0.00002735,0.00008434,0.0000
 9914,0.00002874,0.00003768,-0.00000193,-0.00003917,0.00001495,-0.00014
 337,0.00026326,0.00004435,0.00012130,-0.00000670,0.00007005,0.00021487
 ,0.00036591,0.00014676,-0.00023494,-0.00034310,-0.00014992,-0.00013959
 ,0.00010970,-0.00000297,-0.00001042,0.00002953,-0.00001766,0.00001343,
 -0.00002156,0.00003122,-0.00004418,0.00004502,-0.16865009,-0.06225382,
 -0.13980746,-0.00969677,-0.00397810,-0.01338403,-0.00646016,-0.0065591
 8,-0.00603953,0.17739233,-0.00002047,-0.00001656,-0.00009881,-0.000000
 21,0.00000597,0.00000122,-0.00000158,-0.00000130,0.00000438,0.00000010
 ,0.00000082,-0.00000327,0.00000035,0.00000769,-0.00000448,-0.00002085,
 0.00000773,-0.00000240,0.00352929,0.00061644,-0.00205906,-0.01174138,-
 0.00650043,-0.01098764,-0.00117735,-0.00026533,-0.00027028,0.00000317,
 -0.00000309,0.00000216,-0.00000160,0.00000039,-0.00000050,0.00000008,-
 0.00000012,0.00000021,-0.00000144,0.00000107,-0.00000010,0.00000024,-0
 .00000078,-0.00000338,0.00037289,-0.00006298,0.00012968,-0.00065758,-0
 .00037880,0.00192329,0.00004502,-0.00001625,-0.00002288,0.00000249,-0.
 00003366,0.00008143,0.00008682,-0.00012268,-0.00015617,-0.00059211,0.0
 0006622,0.00053284,-0.00006121,0.00002744,0.00004607,-0.00001714,0.000
 05876,-0.00018683,0.00018403,-0.00016073,-0.00011826,0.00015837,0.0000
 7699,-0.00016181,0.00006035,-0.00000612,-0.00004287,0.00001303,-0.0000
 0693,-0.00002860,0.00005242,-0.00005118,0.00006363,-0.00002983,-0.0000
 2797,0.00008384,-0.00000313,0.00000426,-0.00000744,-0.00003691,-0.0000
 0302,-0.00000232,-0.00160924,-0.00141463,0.00063527,0.00000037,0.00000
 261,0.00000969,-0.00000161,-0.00000473,0.00000426,0.00000653,-0.000006
 91,0.00000787,0.00001465,-0.00000057,0.00000043,0.00002043,-0.00001063
 ,-0.00000137,0.00000969,0.00001015,-0.00000114,-0.00110515,-0.00096040
 ,-0.00153384,0.00021326,0.00018197,-0.00000729,0.00010611,0.00033433,-
 0.00004009,-0.00055298,-0.00010110,0.00031834,0.00000227,-0.00020067,-
 0.00014626,0.00012117,-0.00000212,0.00003582,0.00000511,0.00002269,-0.
 00000555,0.00000383,-0.00001053,-0.00000215,-0.00002764,-0.00020104,0.
 00005097,-0.00024231,0.00007159,-0.00006411,0.00005869,0.00001206,-0.0
 0016377,-0.00000304,0.00000467,0.00000580,-0.00001423,-0.00003350,0.00
 000914,0.00001031,-0.00000104,-0.00001106,-0.00000494,-0.00000485,0.00
 000642,-0.00000994,0.00000263,-0.00000844,-0.00010669,-0.00005716,0.00
 007687,0.00006079,-0.00013302,0.00013107,0.00014811,0.00040357,0.00033
 131,-0.00001252,0.00000233,-0.00000212,-0.00022023,0.00020859,-0.00011
 369,-0.00002372,0.00075787,0.00136807,0.00024762,0.00014234,-0.0001394
 2,0.00000780,0.00000925,-0.00003683,0.00001064,-0.00001918,0.00002792,
 -0.00004819,0.00005471,-0.00006019,-0.05897730,-0.07731275,-0.06946221
 ,-0.00889933,-0.00506122,-0.01245494,0.01327258,0.01053967,0.01506893,
 0.06739325,0.07955912,-0.00009088,0.00000134,0.00011586,-0.00000935,0.
 00000254,-0.00001633,-0.00000361,0.00000538,0.00000384,-0.00000101,0.,
 0.00000266,-0.00000444,-0.00001084,0.00001154,0.00004309,-0.00001476,-
 0.00000201,0.00230400,-0.00162512,-0.00143981,-0.01453905,-0.00856184,
 -0.01918717,-0.00110868,-0.00038630,0.00019310,-0.00000267,0.00000034,
 0.00000165,0.00000059,0.00000025,0.00000025,-0.00000059,-0.00000017,0.
 00000049,0.00000196,-0.00000152,0.00000029,0.00000331,-0.00000400,0.00
 000969,0.00061335,-0.00006695,0.00013712,-0.00183569,0.00277865,0.0027
 9091,-0.00004336,0.00001160,0.00005304,-0.00006359,0.00009191,-0.00002
 111,-0.00045422,-0.00014322,0.00021610,0.00094995,0.00051635,-0.000098
 40,0.00004774,-0.00002197,-0.00008174,0.00005409,-0.00012875,0.0001045
 9,-0.00023386,0.00005381,0.00000694,-0.00014900,-0.00016868,0.00005001
 ,-0.00004696,0.00001938,0.00008456,-0.00001218,0.00000603,0.00003570,-
 0.00008149,0.00010904,-0.00000944,0.00000585,0.00003495,-0.00004403,0.
 00003699,-0.00002086,-0.00001057,0.00004163,0.00000575,-0.00000798,0.0
 0067166,0.00075388,-0.00010150,-0.00000868,0.00000989,0.00001060,-0.00
 000973,0.00000485,0.00000252,-0.00002047,0.00001541,-0.00000854,-0.000
 01460,-0.00000013,0.00000879,-0.00001913,0.00000844,0.00000267,-0.0000
 1047,-0.00000941,0.00000257,-0.00172733,-0.00155505,-0.00077054,-0.000
 16719,-0.00025663,-0.00007477,-0.00005305,0.00001496,0.00007477,0.0007
 6580,0.00029486,-0.00007356,-0.00024150,0.00000636,0.00004577,0.000013
 40,-0.00005874,0.00008216,-0.00001184,-0.00002536,-0.00001101,0.000025
 30,0.00005460,-0.00000433,-0.00007935,0.00013724,-0.00005495,0.0001174
 4,-0.00001607,-0.00000085,0.00002095,-0.00003483,0.00007996,0.00000291
 ,-0.00001244,-0.00000075,0.00000482,0.00001308,0.00000459,-0.00000524,
 -0.00000387,0.00001530,-0.00000409,0.00000166,0.00000485,-0.00001541,-
 0.00001413,0.00001642,-0.00009486,-0.00013901,0.00002509,-0.00006019,0
 .00011198,-0.00010217,-0.00002758,0.00005510,-0.00063131,-0.00005508,-
 0.00021676,0.00002843,0.00042695,-0.00023791,-0.00064054,0.00009594,-0
 .00032155,0.00006026,0.00013808,0.00012745,-0.00008300,-0.00000322,-0.
 00000023,-0.00002638,0.00001926,-0.00001326,0.00003061,-0.00002104,0.0
 0003718,-0.00003711,-0.13444200,-0.06917151,-0.18938473,0.00940722,0.0
 0472333,0.01088053,-0.00288681,-0.00422031,-0.00520752,0.14284720,0.07
 745462,0.20293792\\0.00000292,0.00000127,-0.00000083,-0.00000258,0.000
 00017,0.00000287,0.00000109,-0.00000098,0.00000410,0.00000177,0.000003
 77,-0.00000079,-0.00000314,0.00000490,0.00000449,0.00000290,0.00000235
 ,0.00000340,0.00000157,0.00000183,-0.00001393,-0.00000480,0.00000159,0
 .00001852,-0.00000890,0.00001126,-0.00000103,-0.00000118,-0.00000104,-
 0.00000034,0.00000033,-0.00000073,0.00000230,0.00000091,0.00000309,0.0
 0000401,0.00000102,0.00000587,0.00000431,-0.00000177,0.00000408,0.0000
 0229,0.00000810,-0.00001152,-0.00000371,-0.00000710,-0.00000258,-0.000
 01524,0.00000482,0.00001480,-0.00000726,-0.00000206,0.00000182,-0.0000
 0447,0.00000035,-0.00000055,-0.00000302,0.00001354,-0.00000397,0.00000
 070,-0.00000917,0.00000032,0.00001519,0.00000162,-0.00000435,-0.000005
 88,0.00000258,0.00000215,-0.00000539,-0.00000146,0.00000278,0.00001140
 ,-0.00000801,0.00000703,0.00000161,0.00000743,0.00000639,-0.00000433,-
 0.00000220,0.00000422,-0.00000304,-0.00000360,-0.00000135,-0.00000818,
 0.00000055,-0.00000326,0.00000116,-0.00000520,0.00000030,0.00000628,0.
 00000809,-0.00000349,0.00001374,0.00000069,0.00000111,-0.00000660,-0.0
 0000243,0.00000054,-0.00000643,-0.00000091,-0.00000373,-0.00000539,0.0
 0000291,-0.00000447,0.00000009,0.00000215,0.00000084,0.00000105,-0.000
 00071,0.00000523,0.00000182,-0.00000038,-0.00000480,0.00000190,-0.0000
 0500,-0.00000936,0.00000507,-0.00000248,-0.00000150,0.00000533,-0.0000
 0344,0.00001585,0.00000913,0.00000254,-0.00000275,-0.00000110,0.000004
 23,-0.00002071,-0.00000613,0.00000567,0.00000402,-0.00000892,0.0000011
 1,-0.00000015,-0.00000420,-0.00000205,-0.00000047,-0.00000855,-0.00000
 045,-0.00001060,-0.00000602,-0.00000226,0.00000114,-0.00000370,-0.0000
 0066,0.00000161,-0.00000424,-0.00000014,-0.00000234,-0.00000514,0.0000
 0020,-0.00000182,-0.00000605,-0.00000136,-0.00000364,-0.00000347,-0.00
 000033,0.00001020,-0.00000523,-0.00000630,0.00000821,0.00001116,-0.000
 00789,0.00000107,-0.00001922,0.00000812,-0.00000153,-0.00000054,-0.000
 00225,0.00000229,-0.00000051,-0.00000282,-0.00002365,0.00003901,0.0000
 0229,-0.00000450,-0.00000120,0.00001117,0.00000932,0.00000189,-0.00000
 362,0.00000420,0.00000385,-0.00000190,0.00000201,0.00000025,-0.0000000
 6,0.00000579,0.00000112,0.00001698,-0.00001442,-0.00000168,-0.00000488
 ,-0.00000240,0.00000021,-0.00000326,-0.00000301,-0.00000010,-0.0000009
 4,-0.00000375,0.00000363\\\@


 IT IS NOT EASY TO DESCRIBE
     THE SEA WITH THE MOUTH

                   -- KOKYU
 Job cpu time:       5 days  2 hours 43 minutes 17.8 seconds.
 Elapsed time:       0 days  5 hours  8 minutes 20.1 seconds.
 File lengths (MBytes):  RWF=  12736 Int=      0 D2E=      0 Chk=     88 Scr=      8
 Normal termination of Gaussian 16 at Fri May  2 04:58:52 2025.
