 Entering Gaussian System, Link 0=/sysapps/ubuntu-applications/gaussian-new/avx/g16//g16
 Input=preplx.in
 Output=preplx.log
 Initial command:
 /sysapps/ubuntu-applications/gaussian-new/avx/g16/l1.exe "/scratch/users/selhajj1/298983/Gau-1331592.inp" -scrdir="/scratch/users/selhajj1/298983/"
 Entering Link 1 = /sysapps/ubuntu-applications/gaussian-new/avx/g16/l1.exe PID=   1331595.
  
 Copyright (c) 1988,1990,1992,1993,1995,1998,2003,2009,2016,
            Gaussian, Inc.  All Rights Reserved.
  
 This is part of the Gaussian(R) 16 program.  It is based on
 the Gaussian(R) 09 system (copyright 2009, Gaussian, Inc.),
 the Gaussian(R) 03 system (copyright 2003, Gaussian, Inc.),
 the Gaussian(R) 98 system (copyright 1998, Gaussian, Inc.),
 the Gaussian(R) 94 system (copyright 1995, Gaussian, Inc.),
 the Gaussian 92(TM) system (copyright 1992, Gaussian, Inc.),
 the Gaussian 90(TM) system (copyright 1990, Gaussian, Inc.),
 the Gaussian 88(TM) system (copyright 1988, Gaussian, Inc.),
 the Gaussian 86(TM) system (copyright 1986, Carnegie Mellon
 University), and the Gaussian 82(TM) system (copyright 1983,
 Carnegie Mellon University). Gaussian is a federally registered
 trademark of Gaussian, Inc.
  
 This software contains proprietary and confidential information,
 including trade secrets, belonging to Gaussian, Inc.
  
 This software is provided under written license and may be
 used, copied, transmitted, or stored only in accord with that
 written license.
  
 The following legend is applicable only to US Government
 contracts under FAR:
  
                    RESTRICTED RIGHTS LEGEND
  
 Use, reproduction and disclosure by the US Government is
 subject to restrictions as set forth in subparagraphs (a)
 and (c) of the Commercial Computer Software - Restricted
 Rights clause in FAR 52.227-19.
  
 Gaussian, Inc.
 340 Quinnipiac St., Bldg. 40, Wallingford CT 06492
  
  
 ---------------------------------------------------------------
 Warning -- This program may not be used in any manner that
 competes with the business of Gaussian, Inc. or will provide
 assistance to any competitor of Gaussian, Inc.  The licensee
 of this program is prohibited from giving any competitor of
 Gaussian, Inc. access to this program.  By using this program,
 the user acknowledges that Gaussian, Inc. is engaged in the
 business of creating and licensing software in the field of
 computational chemistry and represents and warrants to the
 licensee that it is not a competitor of Gaussian, Inc. and that
 it will not use this program in any manner prohibited above.
 ---------------------------------------------------------------
  

 Cite this work as:
 Gaussian 16, Revision A.03,
 M. J. Frisch, G. W. Trucks, H. B. Schlegel, G. E. Scuseria, 
 M. A. Robb, J. R. Cheeseman, G. Scalmani, V. Barone, 
 G. A. Petersson, H. Nakatsuji, X. Li, M. Caricato, A. V. Marenich, 
 J. Bloino, B. G. Janesko, R. Gomperts, B. Mennucci, H. P. Hratchian, 
 J. V. Ortiz, A. F. Izmaylov, J. L. Sonnenberg, D. Williams-Young, 
 F. Ding, F. Lipparini, F. Egidi, J. Goings, B. Peng, A. Petrone, 
 T. Henderson, D. Ranasinghe, V. G. Zakrzewski, J. Gao, N. Rega, 
 G. Zheng, W. Liang, M. Hada, M. Ehara, K. Toyota, R. Fukuda, 
 J. Hasegawa, M. Ishida, T. Nakajima, Y. Honda, O. Kitao, H. Nakai, 
 T. Vreven, K. Throssell, J. A. Montgomery, Jr., J. E. Peralta, 
 F. Ogliaro, M. J. Bearpark, J. J. Heyd, E. N. Brothers, K. N. Kudin, 
 V. N. Staroverov, T. A. Keith, R. Kobayashi, J. Normand, 
 K. Raghavachari, A. P. Rendell, J. C. Burant, S. S. Iyengar, 
 J. Tomasi, M. Cossi, J. M. Millam, M. Klene, C. Adamo, R. Cammi, 
 J. W. Ochterski, R. L. Martin, K. Morokuma, O. Farkas, 
 J. B. Foresman, and D. J. Fox, Gaussian, Inc., Wallingford CT, 2016.
 
 ******************************************
 Gaussian 16:  ES64L-G16RevA.03 25-Dec-2016
                28-Apr-2025 
 ******************************************
 %chk=preplx.chk
 %mem=92Gb
 %nprocshared=24
 Will use up to   24 processors via shared memory.
 ----------------------------------------------------------------------
 #P MN15/gen scf=(maxcyc=500) opt=(modred) scrf=(smd,solvent=DiChloroEt
 hane)
 ----------------------------------------------------------------------
 1/18=120,19=15,26=3,38=1/1,3;
 2/9=110,12=2,17=6,18=5,40=1/2;
 3/5=7,11=2,25=1,30=1,70=32201,71=1,72=10,74=-73/1,2,3;
 4//1;
 5/5=2,7=500,38=5,53=10/2;
 6/7=2,8=2,9=2,10=2,28=1/1;
 7//1,2,3,16;
 1/18=20,19=15,26=3/3(2);
 2/9=110/2;
 99//99;
 2/9=110/2;
 3/5=7,6=1,11=2,25=1,30=1,70=32205,71=1,72=10,74=-73,82=7/1,2,3;
 4/5=5,16=3,69=1/1;
 5/5=2,7=500,38=5,53=10/2;
 7//1,2,3,16;
 1/18=20,19=15,26=3/3(-5);
 2/9=110/2;
 6/7=2,8=2,9=2,10=2,19=2,28=1/1;
 99/9=1/99;
 Leave Link    1 at Mon Apr 28 14:03:27 2025, MaxMem= 12348030976 cpu:              26.4 elap:               2.2
 (Enter /sysapps/ubuntu-applications/gaussian-new/avx/g16/l101.exe)
 ---
 Opt
 ---
 Symbolic Z-matrix:
 Charge =  0 Multiplicity = 1
 C                     5.56906   1.01982   0.56609 
 C                     6.32791   0.54931   1.66792 
 C                     7.6864    0.83078   1.75033 
 C                     8.30122   1.56171   0.7293 
 C                     7.56705   2.02421  -0.37592 
 C                     6.20949   1.76439  -0.46013 
 C                     1.76568   1.11936  -0.16471 
 C                     1.14003   1.53463   1.03551 
 C                     0.99311   0.53458  -1.18572 
 H                     5.8242   -0.01937   2.45262 
 H                     8.26996   0.47979   2.60295 
 H                     9.37027   1.77839   0.79069 
 H                     8.06734   2.58954  -1.164 
 H                     5.63339   2.12097  -1.31668 
 O                    -0.23061   0.21803  -1.11361 
 O                    -0.09824   1.55333   1.27949 
 O                     1.97087   1.96939   1.97679 
 O                     1.64188   0.26501  -2.31822 
 C                     1.40994   2.37405   3.22345 
 C                     0.88996  -0.16518  -3.44767 
 H                     2.2549    2.61799   3.87626 
 H                     0.81481   1.55991   3.66013 
 H                     0.76945   3.25556   3.09374 
 H                     1.62155  -0.38697  -4.23352 
 H                     0.21186   0.63303  -3.78231 
 H                     0.29338  -1.0593   -3.2189 
 O                    -2.90676  -0.9304   -0.48954 
 O                    -2.74094   0.49917   2.05324 
 O                    -0.98705   2.83449  -1.03435 
 S                    -1.91799   3.71294  -0.28375 
 S                    -3.6573   -0.26319  -1.597 
 S                    -1.99818  -0.7256    2.49196 
 O                    -2.67831   2.80517   0.63548 
 O                    -2.67911   4.69697  -1.01246 
 O                    -3.09477   1.11789  -1.65087 
 O                    -3.82459  -0.98522  -2.83136 
 O                    -1.00231  -0.99755   1.42607 
 O                    -1.54635  -0.76386   3.86254 
 C                    -3.25745  -2.09985   2.34434 
 C                    -5.33713  -0.01788  -0.89 
 C                    -0.82226   4.69003   0.87481 
 F                    -2.78788  -3.04961   1.55382 
 F                    -4.39057  -1.63759   1.85535 
 F                    -3.47691  -2.60701   3.54405 
 F                    -5.23153   0.67676   0.22873 
 F                    -5.88442  -1.19179  -0.63663 
 F                    -6.0842    0.643    -1.75423 
 F                     0.44625   4.36054   0.68838 
 F                    -1.15514   4.44209   2.1285 
 F                    -0.97193   5.97788   0.62956 
 C                     4.17809   0.72738   0.51818 
 H                     3.76932   0.13069   1.34259 
 C                     4.28145  -2.46974  -1.07459 
 C                     5.31817  -2.96197  -0.2458 
 C                     4.58164  -1.9417   -2.34972 
 C                     0.88771  -3.86765  -1.5529 
 C                     1.45258  -3.56393   0.74427 
 C                     0.51378  -3.96294  -0.22751 
 H                     0.2308   -4.16691  -2.37019 
 H                     1.22277  -3.61153   1.81038 
 H                    -0.46981  -4.31823   0.07565 
 N                     6.1916   -3.3118    0.44134 
 N                     4.8221   -1.42585  -3.36768 
 N                     2.972    -3.00454  -0.84029 
 N                     2.64198  -3.08864   0.44206 
 Sc                   -1.70521   0.89206   0.1403 
 C                     3.22187   1.43249  -0.36838 
 H                     3.41309   2.50901  -0.18487 
 H                     3.512     1.29487  -1.42537 
 C                     2.16524  -3.38838  -1.84205 
 H                     2.56422  -3.31826  -2.85513 
 
 Add virtual bond connecting atoms H61        and F42        Dist= 5.72D+00.
 The following ModRedundant input section has been read:
 B      51      53 F                                                           
 
 ITRead=  0  0  0  0  0  0  0  0  0  0  0  0  0  0  0  0  0  0  0  0
 ITRead=  0  0  0  0  0  0  0  0  0  0  0  0  0  0  0  0  0  0  0  0
 ITRead=  0  0  0  0  0  0  0  0  0  0  0  0  0  0  0  0  0  0  0  0
 ITRead=  0  0  0  0  0  0  0  0  0  0  0
 MicOpt= -1 -1 -1 -1 -1 -1 -1 -1 -1 -1 -1 -1 -1 -1 -1 -1 -1 -1 -1 -1
 MicOpt= -1 -1 -1 -1 -1 -1 -1 -1 -1 -1 -1 -1 -1 -1 -1 -1 -1 -1 -1 -1
 MicOpt= -1 -1 -1 -1 -1 -1 -1 -1 -1 -1 -1 -1 -1 -1 -1 -1 -1 -1 -1 -1
 MicOpt= -1 -1 -1 -1 -1 -1 -1 -1 -1 -1 -1
 NAtoms=     71 NQM=       71 NQMF=       0 NMMI=      0 NMMIF=      0
                NMic=       0 NMicF=      0.
                    Isotopes and Nuclear Properties:
 (Nuclear quadrupole moments (NQMom) in fm**2, nuclear magnetic moments (NMagM)
  in nuclear magnetons)

  Atom         1           2           3           4           5           6           7           8           9          10
 IAtWgt=          12          12          12          12          12          12          12          12          12           1
 AtmWgt=  12.0000000  12.0000000  12.0000000  12.0000000  12.0000000  12.0000000  12.0000000  12.0000000  12.0000000   1.0078250
 NucSpn=           0           0           0           0           0           0           0           0           0           1
 AtZEff=  -0.0000000  -0.0000000  -0.0000000  -0.0000000  -0.0000000  -0.0000000  -0.0000000  -0.0000000  -0.0000000  -0.0000000
 NQMom=    0.0000000   0.0000000   0.0000000   0.0000000   0.0000000   0.0000000   0.0000000   0.0000000   0.0000000   0.0000000
 NMagM=    0.0000000   0.0000000   0.0000000   0.0000000   0.0000000   0.0000000   0.0000000   0.0000000   0.0000000   2.7928460
 AtZNuc=   6.0000000   6.0000000   6.0000000   6.0000000   6.0000000   6.0000000   6.0000000   6.0000000   6.0000000   1.0000000

  Atom        11          12          13          14          15          16          17          18          19          20
 IAtWgt=           1           1           1           1          16          16          16          16          12          12
 AtmWgt=   1.0078250   1.0078250   1.0078250   1.0078250  15.9949146  15.9949146  15.9949146  15.9949146  12.0000000  12.0000000
 NucSpn=           1           1           1           1           0           0           0           0           0           0
 AtZEff=  -0.0000000  -0.0000000  -0.0000000  -0.0000000  -0.0000000  -0.0000000  -0.0000000  -0.0000000  -0.0000000  -0.0000000
 NQMom=    0.0000000   0.0000000   0.0000000   0.0000000   0.0000000   0.0000000   0.0000000   0.0000000   0.0000000   0.0000000
 NMagM=    2.7928460   2.7928460   2.7928460   2.7928460   0.0000000   0.0000000   0.0000000   0.0000000   0.0000000   0.0000000
 AtZNuc=   1.0000000   1.0000000   1.0000000   1.0000000   8.0000000   8.0000000   8.0000000   8.0000000   6.0000000   6.0000000

  Atom        21          22          23          24          25          26          27          28          29          30
 IAtWgt=           1           1           1           1           1           1          16          16          16          32
 AtmWgt=   1.0078250   1.0078250   1.0078250   1.0078250   1.0078250   1.0078250  15.9949146  15.9949146  15.9949146  31.9720718
 NucSpn=           1           1           1           1           1           1           0           0           0           0
 AtZEff=  -0.0000000  -0.0000000  -0.0000000  -0.0000000  -0.0000000  -0.0000000  -0.0000000  -0.0000000  -0.0000000  -0.0000000
 NQMom=    0.0000000   0.0000000   0.0000000   0.0000000   0.0000000   0.0000000   0.0000000   0.0000000   0.0000000   0.0000000
 NMagM=    2.7928460   2.7928460   2.7928460   2.7928460   2.7928460   2.7928460   0.0000000   0.0000000   0.0000000   0.0000000
 AtZNuc=   1.0000000   1.0000000   1.0000000   1.0000000   1.0000000   1.0000000   8.0000000   8.0000000   8.0000000  16.0000000

  Atom        31          32          33          34          35          36          37          38          39          40
 IAtWgt=          32          32          16          16          16          16          16          16          12          12
 AtmWgt=  31.9720718  31.9720718  15.9949146  15.9949146  15.9949146  15.9949146  15.9949146  15.9949146  12.0000000  12.0000000
 NucSpn=           0           0           0           0           0           0           0           0           0           0
 AtZEff=  -0.0000000  -0.0000000  -0.0000000  -0.0000000  -0.0000000  -0.0000000  -0.0000000  -0.0000000  -0.0000000  -0.0000000
 NQMom=    0.0000000   0.0000000   0.0000000   0.0000000   0.0000000   0.0000000   0.0000000   0.0000000   0.0000000   0.0000000
 NMagM=    0.0000000   0.0000000   0.0000000   0.0000000   0.0000000   0.0000000   0.0000000   0.0000000   0.0000000   0.0000000
 AtZNuc=  16.0000000  16.0000000   8.0000000   8.0000000   8.0000000   8.0000000   8.0000000   8.0000000   6.0000000   6.0000000

  Atom        41          42          43          44          45          46          47          48          49          50
 IAtWgt=          12          19          19          19          19          19          19          19          19          19
 AtmWgt=  12.0000000  18.9984032  18.9984032  18.9984032  18.9984032  18.9984032  18.9984032  18.9984032  18.9984032  18.9984032
 NucSpn=           0           1           1           1           1           1           1           1           1           1
 AtZEff=  -0.0000000  -0.0000000  -0.0000000  -0.0000000  -0.0000000  -0.0000000  -0.0000000  -0.0000000  -0.0000000  -0.0000000
 NQMom=    0.0000000   0.0000000   0.0000000   0.0000000   0.0000000   0.0000000   0.0000000   0.0000000   0.0000000   0.0000000
 NMagM=    0.0000000   2.6288670   2.6288670   2.6288670   2.6288670   2.6288670   2.6288670   2.6288670   2.6288670   2.6288670
 AtZNuc=   6.0000000   9.0000000   9.0000000   9.0000000   9.0000000   9.0000000   9.0000000   9.0000000   9.0000000   9.0000000

  Atom        51          52          53          54          55          56          57          58          59          60
 IAtWgt=          12           1          12          12          12          12          12          12           1           1
 AtmWgt=  12.0000000   1.0078250  12.0000000  12.0000000  12.0000000  12.0000000  12.0000000  12.0000000   1.0078250   1.0078250
 NucSpn=           0           1           0           0           0           0           0           0           1           1
 AtZEff=  -0.0000000  -0.0000000  -0.0000000  -0.0000000  -0.0000000  -0.0000000  -0.0000000  -0.0000000  -0.0000000  -0.0000000
 NQMom=    0.0000000   0.0000000   0.0000000   0.0000000   0.0000000   0.0000000   0.0000000   0.0000000   0.0000000   0.0000000
 NMagM=    0.0000000   2.7928460   0.0000000   0.0000000   0.0000000   0.0000000   0.0000000   0.0000000   2.7928460   2.7928460
 AtZNuc=   6.0000000   1.0000000   6.0000000   6.0000000   6.0000000   6.0000000   6.0000000   6.0000000   1.0000000   1.0000000

  Atom        61          62          63          64          65          66          67          68          69          70
 IAtWgt=           1          14          14          14          14          45          12           1           1          12
 AtmWgt=   1.0078250  14.0030740  14.0030740  14.0030740  14.0030740  44.9559136  12.0000000   1.0078250   1.0078250  12.0000000
 NucSpn=           1           2           2           2           2           7           0           1           1           0
 AtZEff=  -0.0000000  -0.0000000  -0.0000000  -0.0000000  -0.0000000  -0.0000000  -0.0000000  -0.0000000  -0.0000000  -0.0000000
 NQMom=    0.0000000   2.0440000   2.0440000   2.0440000   2.0440000 -22.0000000   0.0000000   0.0000000   0.0000000   0.0000000
 NMagM=    2.7928460   0.4037610   0.4037610   0.4037610   0.4037610   4.7564830   0.0000000   2.7928460   2.7928460   0.0000000
 AtZNuc=   1.0000000   7.0000000   7.0000000   7.0000000   7.0000000  21.0000000   6.0000000   1.0000000   1.0000000   6.0000000

  Atom        71
 IAtWgt=           1
 AtmWgt=   1.0078250
 NucSpn=           1
 AtZEff=  -0.0000000
 NQMom=    0.0000000
 NMagM=    2.7928460
 AtZNuc=   1.0000000
 Leave Link  101 at Mon Apr 28 14:03:28 2025, MaxMem= 12348030976 cpu:              19.0 elap:               0.8
 (Enter /sysapps/ubuntu-applications/gaussian-new/avx/g16/l103.exe)

 GradGradGradGradGradGradGradGradGradGradGradGradGradGradGradGradGradGrad
 Berny optimization.
 Initialization pass.
                           ----------------------------
                           !    Initial Parameters    !
                           ! (Angstroms and Degrees)  !
 --------------------------                            --------------------------
 ! Name  Definition              Value          Derivative Info.                !
 --------------------------------------------------------------------------------
 ! R1    R(1,2)                  1.4182         estimate D2E/DX2                !
 ! R2    R(1,6)                  1.4204         estimate D2E/DX2                !
 ! R3    R(1,51)                 1.4222         estimate D2E/DX2                !
 ! R4    R(2,3)                  1.3898         estimate D2E/DX2                !
 ! R5    R(2,10)                 1.0922         estimate D2E/DX2                !
 ! R6    R(3,4)                  1.3981         estimate D2E/DX2                !
 ! R7    R(3,11)                 1.0912         estimate D2E/DX2                !
 ! R8    R(4,5)                  1.4051         estimate D2E/DX2                !
 ! R9    R(4,12)                 1.0925         estimate D2E/DX2                !
 ! R10   R(5,6)                  1.3848         estimate D2E/DX2                !
 ! R11   R(5,13)                 1.0913         estimate D2E/DX2                !
 ! R12   R(6,14)                 1.0921         estimate D2E/DX2                !
 ! R13   R(7,8)                  1.4158         estimate D2E/DX2                !
 ! R14   R(7,9)                  1.4076         estimate D2E/DX2                !
 ! R15   R(7,67)                 1.5033         estimate D2E/DX2                !
 ! R16   R(8,16)                 1.2622         estimate D2E/DX2                !
 ! R17   R(8,17)                 1.3287         estimate D2E/DX2                !
 ! R18   R(9,15)                 1.2661         estimate D2E/DX2                !
 ! R19   R(9,18)                 1.3327         estimate D2E/DX2                !
 ! R20   R(15,66)                2.0496         estimate D2E/DX2                !
 ! R21   R(16,66)                2.0778         estimate D2E/DX2                !
 ! R22   R(17,19)                1.4257         estimate D2E/DX2                !
 ! R23   R(18,20)                1.4234         estimate D2E/DX2                !
 ! R24   R(19,21)                1.0953         estimate D2E/DX2                !
 ! R25   R(19,22)                1.099          estimate D2E/DX2                !
 ! R26   R(19,23)                1.0973         estimate D2E/DX2                !
 ! R27   R(20,24)                1.0964         estimate D2E/DX2                !
 ! R28   R(20,25)                1.0995         estimate D2E/DX2                !
 ! R29   R(20,26)                1.0989         estimate D2E/DX2                !
 ! R30   R(27,31)                1.495          estimate D2E/DX2                !
 ! R31   R(27,66)                2.272          estimate D2E/DX2                !
 ! R32   R(28,32)                1.4981         estimate D2E/DX2                !
 ! R33   R(28,66)                2.2105         estimate D2E/DX2                !
 ! R34   R(29,30)                1.4838         estimate D2E/DX2                !
 ! R35   R(29,66)                2.3809         estimate D2E/DX2                !
 ! R36   R(30,33)                1.499          estimate D2E/DX2                !
 ! R37   R(30,34)                1.4418         estimate D2E/DX2                !
 ! R38   R(30,41)                1.8702         estimate D2E/DX2                !
 ! R39   R(30,66)                2.8605         estimate D2E/DX2                !
 ! R40   R(31,35)                1.4922         estimate D2E/DX2                !
 ! R41   R(31,36)                1.4398         estimate D2E/DX2                !
 ! R42   R(31,40)                1.839          estimate D2E/DX2                !
 ! R43   R(31,66)                2.8572         estimate D2E/DX2                !
 ! R44   R(32,37)                1.4839         estimate D2E/DX2                !
 ! R45   R(32,38)                1.4436         estimate D2E/DX2                !
 ! R46   R(32,39)                1.8698         estimate D2E/DX2                !
 ! R47   R(32,66)                2.8693         estimate D2E/DX2                !
 ! R48   R(33,66)                2.2027         estimate D2E/DX2                !
 ! R49   R(35,66)                2.2782         estimate D2E/DX2                !
 ! R50   R(37,66)                2.3912         estimate D2E/DX2                !
 ! R51   R(39,42)                1.3219         estimate D2E/DX2                !
 ! R52   R(39,43)                1.3179         estimate D2E/DX2                !
 ! R53   R(39,44)                1.3209         estimate D2E/DX2                !
 ! R54   R(40,45)                1.3211         estimate D2E/DX2                !
 ! R55   R(40,46)                1.3198         estimate D2E/DX2                !
 ! R56   R(40,47)                1.3198         estimate D2E/DX2                !
 ! R57   R(41,48)                1.3238         estimate D2E/DX2                !
 ! R58   R(41,49)                1.3206         estimate D2E/DX2                !
 ! R59   R(41,50)                1.3195         estimate D2E/DX2                !
 ! R60   R(42,61)                3.0278         estimate D2E/DX2                !
 ! R61   R(51,52)                1.0967         estimate D2E/DX2                !
 ! R62   R(51,53)                3.5734         Frozen                          !
 ! R63   R(51,67)                1.4824         estimate D2E/DX2                !
 ! R64   R(53,54)                1.4156         estimate D2E/DX2                !
 ! R65   R(53,55)                1.4124         estimate D2E/DX2                !
 ! R66   R(53,64)                1.4337         estimate D2E/DX2                !
 ! R67   R(54,62)                1.1651         estimate D2E/DX2                !
 ! R68   R(55,63)                1.1663         estimate D2E/DX2                !
 ! R69   R(56,58)                1.3804         estimate D2E/DX2                !
 ! R70   R(56,59)                1.0904         estimate D2E/DX2                !
 ! R71   R(56,70)                1.3948         estimate D2E/DX2                !
 ! R72   R(57,58)                1.4089         estimate D2E/DX2                !
 ! R73   R(57,60)                1.0916         estimate D2E/DX2                !
 ! R74   R(57,65)                1.316          estimate D2E/DX2                !
 ! R75   R(58,61)                1.0888         estimate D2E/DX2                !
 ! R76   R(64,65)                1.3268         estimate D2E/DX2                !
 ! R77   R(64,70)                1.3423         estimate D2E/DX2                !
 ! R78   R(67,68)                1.1087         estimate D2E/DX2                !
 ! R79   R(67,69)                1.1047         estimate D2E/DX2                !
 ! R80   R(70,71)                1.0911         estimate D2E/DX2                !
 ! A1    A(2,1,6)              119.601          estimate D2E/DX2                !
 ! A2    A(2,1,51)             118.7697         estimate D2E/DX2                !
 ! A3    A(6,1,51)             121.6291         estimate D2E/DX2                !
 ! A4    A(1,2,3)              120.1263         estimate D2E/DX2                !
 ! A5    A(1,2,10)             118.9579         estimate D2E/DX2                !
 ! A6    A(3,2,10)             120.9077         estimate D2E/DX2                !
 ! A7    A(2,3,4)              119.4992         estimate D2E/DX2                !
 ! A8    A(2,3,11)             120.2607         estimate D2E/DX2                !
 ! A9    A(4,3,11)             120.2394         estimate D2E/DX2                !
 ! A10   A(3,4,5)              121.1128         estimate D2E/DX2                !
 ! A11   A(3,4,12)             119.5342         estimate D2E/DX2                !
 ! A12   A(5,4,12)             119.353          estimate D2E/DX2                !
 ! A13   A(4,5,6)              119.8876         estimate D2E/DX2                !
 ! A14   A(4,5,13)             119.9328         estimate D2E/DX2                !
 ! A15   A(6,5,13)             120.1793         estimate D2E/DX2                !
 ! A16   A(1,6,5)              119.7641         estimate D2E/DX2                !
 ! A17   A(1,6,14)             119.9957         estimate D2E/DX2                !
 ! A18   A(5,6,14)             120.2373         estimate D2E/DX2                !
 ! A19   A(8,7,9)              119.6193         estimate D2E/DX2                !
 ! A20   A(8,7,67)             118.8039         estimate D2E/DX2                !
 ! A21   A(9,7,67)             121.3262         estimate D2E/DX2                !
 ! A22   A(7,8,16)             126.995          estimate D2E/DX2                !
 ! A23   A(7,8,17)             114.8484         estimate D2E/DX2                !
 ! A24   A(16,8,17)            118.1431         estimate D2E/DX2                !
 ! A25   A(7,9,15)             126.3748         estimate D2E/DX2                !
 ! A26   A(7,9,18)             115.6734         estimate D2E/DX2                !
 ! A27   A(15,9,18)            117.9275         estimate D2E/DX2                !
 ! A28   A(9,15,66)            130.3917         estimate D2E/DX2                !
 ! A29   A(8,16,66)            130.3928         estimate D2E/DX2                !
 ! A30   A(8,17,19)            117.7962         estimate D2E/DX2                !
 ! A31   A(9,18,20)            118.5713         estimate D2E/DX2                !
 ! A32   A(17,19,21)           106.3119         estimate D2E/DX2                !
 ! A33   A(17,19,22)           110.5031         estimate D2E/DX2                !
 ! A34   A(17,19,23)           110.7508         estimate D2E/DX2                !
 ! A35   A(21,19,22)           110.2392         estimate D2E/DX2                !
 ! A36   A(21,19,23)           109.988          estimate D2E/DX2                !
 ! A37   A(22,19,23)           109.0274         estimate D2E/DX2                !
 ! A38   A(18,20,24)           106.1048         estimate D2E/DX2                !
 ! A39   A(18,20,25)           110.3576         estimate D2E/DX2                !
 ! A40   A(18,20,26)           111.5599         estimate D2E/DX2                !
 ! A41   A(24,20,25)           109.8919         estimate D2E/DX2                !
 ! A42   A(24,20,26)           110.2964         estimate D2E/DX2                !
 ! A43   A(25,20,26)           108.6157         estimate D2E/DX2                !
 ! A44   A(29,30,33)           105.6584         estimate D2E/DX2                !
 ! A45   A(29,30,34)           118.6591         estimate D2E/DX2                !
 ! A46   A(29,30,41)           104.7788         estimate D2E/DX2                !
 ! A47   A(33,30,34)           117.0971         estimate D2E/DX2                !
 ! A48   A(33,30,41)           103.5138         estimate D2E/DX2                !
 ! A49   A(34,30,41)           105.416          estimate D2E/DX2                !
 ! A50   A(34,30,66)           141.931          estimate D2E/DX2                !
 ! A51   A(41,30,66)           112.3215         estimate D2E/DX2                !
 ! A52   A(27,31,35)           104.5101         estimate D2E/DX2                !
 ! A53   A(27,31,36)           118.0092         estimate D2E/DX2                !
 ! A54   A(27,31,40)           103.4934         estimate D2E/DX2                !
 ! A55   A(35,31,36)           118.489          estimate D2E/DX2                !
 ! A56   A(35,31,40)           103.5782         estimate D2E/DX2                !
 ! A57   A(36,31,40)           106.8792         estimate D2E/DX2                !
 ! A58   A(36,31,66)           143.4609         estimate D2E/DX2                !
 ! A59   A(40,31,66)           109.6574         estimate D2E/DX2                !
 ! A60   A(28,32,37)           105.7968         estimate D2E/DX2                !
 ! A61   A(28,32,38)           117.0568         estimate D2E/DX2                !
 ! A62   A(28,32,39)           104.114          estimate D2E/DX2                !
 ! A63   A(37,32,38)           117.8436         estimate D2E/DX2                !
 ! A64   A(37,32,39)           105.105          estimate D2E/DX2                !
 ! A65   A(38,32,39)           105.4421         estimate D2E/DX2                !
 ! A66   A(38,32,66)           139.5605         estimate D2E/DX2                !
 ! A67   A(39,32,66)           114.7352         estimate D2E/DX2                !
 ! A68   A(32,39,42)           109.6358         estimate D2E/DX2                !
 ! A69   A(32,39,43)           110.5219         estimate D2E/DX2                !
 ! A70   A(32,39,44)           108.8077         estimate D2E/DX2                !
 ! A71   A(42,39,43)           109.6058         estimate D2E/DX2                !
 ! A72   A(42,39,44)           109.045          estimate D2E/DX2                !
 ! A73   A(43,39,44)           109.1982         estimate D2E/DX2                !
 ! A74   A(31,40,45)           108.8257         estimate D2E/DX2                !
 ! A75   A(31,40,46)           109.5091         estimate D2E/DX2                !
 ! A76   A(31,40,47)           109.3974         estimate D2E/DX2                !
 ! A77   A(45,40,46)           109.7717         estimate D2E/DX2                !
 ! A78   A(45,40,47)           109.6626         estimate D2E/DX2                !
 ! A79   A(46,40,47)           109.6573         estimate D2E/DX2                !
 ! A80   A(30,41,48)           110.1299         estimate D2E/DX2                !
 ! A81   A(30,41,49)           110.0183         estimate D2E/DX2                !
 ! A82   A(30,41,50)           109.1671         estimate D2E/DX2                !
 ! A83   A(48,41,49)           109.1777         estimate D2E/DX2                !
 ! A84   A(48,41,50)           108.9919         estimate D2E/DX2                !
 ! A85   A(49,41,50)           109.3357         estimate D2E/DX2                !
 ! A86   A(39,42,61)           149.8739         estimate D2E/DX2                !
 ! A87   A(1,51,52)            116.8138         estimate D2E/DX2                !
 ! A88   A(1,51,67)            123.5893         estimate D2E/DX2                !
 ! A89   A(52,51,67)           117.8994         estimate D2E/DX2                !
 ! A90   A(54,53,55)           120.1928         estimate D2E/DX2                !
 ! A91   A(54,53,64)           116.3267         estimate D2E/DX2                !
 ! A92   A(55,53,64)           118.7571         estimate D2E/DX2                !
 ! A93   A(58,56,59)           122.513          estimate D2E/DX2                !
 ! A94   A(58,56,70)           118.0911         estimate D2E/DX2                !
 ! A95   A(59,56,70)           119.3879         estimate D2E/DX2                !
 ! A96   A(58,57,60)           121.3993         estimate D2E/DX2                !
 ! A97   A(58,57,65)           123.102          estimate D2E/DX2                !
 ! A98   A(60,57,65)           115.4853         estimate D2E/DX2                !
 ! A99   A(56,58,57)           117.5297         estimate D2E/DX2                !
 ! A100  A(56,58,61)           122.3127         estimate D2E/DX2                !
 ! A101  A(57,58,61)           120.1528         estimate D2E/DX2                !
 ! A102  A(42,61,58)           133.6924         estimate D2E/DX2                !
 ! A103  A(53,64,65)           114.1267         estimate D2E/DX2                !
 ! A104  A(53,64,70)           122.2523         estimate D2E/DX2                !
 ! A105  A(65,64,70)           123.6202         estimate D2E/DX2                !
 ! A106  A(57,65,64)           118.0105         estimate D2E/DX2                !
 ! A107  A(15,66,16)            83.3189         estimate D2E/DX2                !
 ! A108  A(15,66,27)            86.9674         estimate D2E/DX2                !
 ! A109  A(15,66,28)           143.9058         estimate D2E/DX2                !
 ! A110  A(15,66,29)            75.4903         estimate D2E/DX2                !
 ! A111  A(15,66,30)           106.6859         estimate D2E/DX2                !
 ! A112  A(15,66,31)            89.2316         estimate D2E/DX2                !
 ! A113  A(15,66,32)           112.9207         estimate D2E/DX2                !
 ! A114  A(15,66,33)           137.8135         estimate D2E/DX2                !
 ! A115  A(15,66,35)            89.4515         estimate D2E/DX2                !
 ! A116  A(15,66,37)            81.8133         estimate D2E/DX2                !
 ! A117  A(16,66,27)           144.715          estimate D2E/DX2                !
 ! A118  A(16,66,28)            86.8172         estimate D2E/DX2                !
 ! A119  A(16,66,29)            77.1482         estimate D2E/DX2                !
 ! A120  A(16,66,30)            79.9194         estimate D2E/DX2                !
 ! A121  A(16,66,32)            78.9913         estimate D2E/DX2                !
 ! A122  A(16,66,33)            86.6756         estimate D2E/DX2                !
 ! A123  A(16,66,35)           150.6018         estimate D2E/DX2                !
 ! A124  A(16,66,37)            74.2969         estimate D2E/DX2                !
 ! A125  A(27,66,28)            81.3463         estimate D2E/DX2                !
 ! A126  A(27,66,29)           132.624          estimate D2E/DX2                !
 ! A127  A(27,66,30)           135.2844         estimate D2E/DX2                !
 ! A128  A(27,66,32)            73.7977         estimate D2E/DX2                !
 ! A129  A(27,66,33)           121.6928         estimate D2E/DX2                !
 ! A130  A(27,66,35)            62.547          estimate D2E/DX2                !
 ! A131  A(27,66,37)            70.7698         estimate D2E/DX2                !
 ! A132  A(28,66,29)           135.5029         estimate D2E/DX2                !
 ! A133  A(28,66,30)           105.5874         estimate D2E/DX2                !
 ! A134  A(28,66,31)            97.7127         estimate D2E/DX2                !
 ! A135  A(28,66,33)            75.6907         estimate D2E/DX2                !
 ! A136  A(28,66,35)           114.344          estimate D2E/DX2                !
 ! A137  A(28,66,37)            62.0926         estimate D2E/DX2                !
 ! A138  A(29,66,31)           103.6487         estimate D2E/DX2                !
 ! A139  A(29,66,32)           153.5233         estimate D2E/DX2                !
 ! A140  A(29,66,33)            62.3283         estimate D2E/DX2                !
 ! A141  A(29,66,35)            73.4539         estimate D2E/DX2                !
 ! A142  A(29,66,37)           145.2178         estimate D2E/DX2                !
 ! A143  A(30,66,31)           104.9379         estimate D2E/DX2                !
 ! A144  A(30,66,32)           132.0574         estimate D2E/DX2                !
 ! A145  A(30,66,35)            74.9493         estimate D2E/DX2                !
 ! A146  A(30,66,37)           151.7466         estimate D2E/DX2                !
 ! A147  A(31,66,32)           101.5739         estimate D2E/DX2                !
 ! A148  A(31,66,33)           100.7211         estimate D2E/DX2                !
 ! A149  A(31,66,37)           102.0209         estimate D2E/DX2                !
 ! A150  A(32,66,33)           105.0878         estimate D2E/DX2                !
 ! A151  A(32,66,35)           129.6418         estimate D2E/DX2                !
 ! A152  A(33,66,35)            79.7001         estimate D2E/DX2                !
 ! A153  A(33,66,37)           134.0515         estimate D2E/DX2                !
 ! A154  A(35,66,37)           132.8734         estimate D2E/DX2                !
 ! A155  A(7,67,51)            116.4059         estimate D2E/DX2                !
 ! A156  A(7,67,68)            110.2972         estimate D2E/DX2                !
 ! A157  A(7,67,69)            110.9823         estimate D2E/DX2                !
 ! A158  A(51,67,68)           104.573          estimate D2E/DX2                !
 ! A159  A(51,67,69)           110.0939         estimate D2E/DX2                !
 ! A160  A(68,67,69)           103.5351         estimate D2E/DX2                !
 ! A161  A(56,70,64)           119.6078         estimate D2E/DX2                !
 ! A162  A(56,70,71)           123.3333         estimate D2E/DX2                !
 ! A163  A(64,70,71)           117.0524         estimate D2E/DX2                !
 ! A164  L(53,54,62,1,-1)      177.1974         estimate D2E/DX2                !
 ! A165  L(53,55,63,1,-1)      176.0397         estimate D2E/DX2                !
 ! A166  L(16,66,31,15,-1)     172.5505         estimate D2E/DX2                !
 ! A167  L(53,54,62,1,-2)      180.7731         estimate D2E/DX2                !
 ! A168  L(53,55,63,1,-2)      181.7371         estimate D2E/DX2                !
 ! A169  L(16,66,31,15,-2)     177.2823         estimate D2E/DX2                !
 ! D1    D(6,1,2,3)              0.8336         estimate D2E/DX2                !
 ! D2    D(6,1,2,10)           179.8048         estimate D2E/DX2                !
 ! D3    D(51,1,2,3)          -179.3255         estimate D2E/DX2                !
 ! D4    D(51,1,2,10)           -0.3544         estimate D2E/DX2                !
 ! D5    D(2,1,6,5)             -0.0105         estimate D2E/DX2                !
 ! D6    D(2,1,6,14)           179.3675         estimate D2E/DX2                !
 ! D7    D(51,1,6,5)          -179.8466         estimate D2E/DX2                !
 ! D8    D(51,1,6,14)           -0.4686         estimate D2E/DX2                !
 ! D9    D(2,1,51,52)           -0.9729         estimate D2E/DX2                !
 ! D10   D(2,1,51,67)          163.8373         estimate D2E/DX2                !
 ! D11   D(6,1,51,52)          178.8646         estimate D2E/DX2                !
 ! D12   D(6,1,51,67)          -16.3252         estimate D2E/DX2                !
 ! D13   D(1,2,3,4)             -1.0174         estimate D2E/DX2                !
 ! D14   D(1,2,3,11)           179.2842         estimate D2E/DX2                !
 ! D15   D(10,2,3,4)          -179.9681         estimate D2E/DX2                !
 ! D16   D(10,2,3,11)            0.3335         estimate D2E/DX2                !
 ! D17   D(2,3,4,5)              0.3934         estimate D2E/DX2                !
 ! D18   D(2,3,4,12)          -179.6522         estimate D2E/DX2                !
 ! D19   D(11,3,4,5)          -179.9081         estimate D2E/DX2                !
 ! D20   D(11,3,4,12)            0.0463         estimate D2E/DX2                !
 ! D21   D(3,4,5,6)              0.4303         estimate D2E/DX2                !
 ! D22   D(3,4,5,13)          -179.7481         estimate D2E/DX2                !
 ! D23   D(12,4,5,6)          -179.5242         estimate D2E/DX2                !
 ! D24   D(12,4,5,13)            0.2974         estimate D2E/DX2                !
 ! D25   D(4,5,6,1)             -0.6111         estimate D2E/DX2                !
 ! D26   D(4,5,6,14)          -179.9875         estimate D2E/DX2                !
 ! D27   D(13,5,6,1)           179.5678         estimate D2E/DX2                !
 ! D28   D(13,5,6,14)            0.1913         estimate D2E/DX2                !
 ! D29   D(9,7,8,16)            -6.7673         estimate D2E/DX2                !
 ! D30   D(9,7,8,17)           174.6048         estimate D2E/DX2                !
 ! D31   D(67,7,8,16)          167.5594         estimate D2E/DX2                !
 ! D32   D(67,7,8,17)          -11.0686         estimate D2E/DX2                !
 ! D33   D(8,7,9,15)            -6.673          estimate D2E/DX2                !
 ! D34   D(8,7,9,18)           175.1685         estimate D2E/DX2                !
 ! D35   D(67,7,9,15)          179.1473         estimate D2E/DX2                !
 ! D36   D(67,7,9,18)            0.9888         estimate D2E/DX2                !
 ! D37   D(8,7,67,51)           67.7884         estimate D2E/DX2                !
 ! D38   D(8,7,67,68)          -51.104          estimate D2E/DX2                !
 ! D39   D(8,7,67,69)         -165.2523         estimate D2E/DX2                !
 ! D40   D(9,7,67,51)         -117.9856         estimate D2E/DX2                !
 ! D41   D(9,7,67,68)          123.122          estimate D2E/DX2                !
 ! D42   D(9,7,67,69)            8.9736         estimate D2E/DX2                !
 ! D43   D(7,8,16,66)            4.6365         estimate D2E/DX2                !
 ! D44   D(17,8,16,66)        -176.7755         estimate D2E/DX2                !
 ! D45   D(7,8,17,19)         -178.5635         estimate D2E/DX2                !
 ! D46   D(16,8,17,19)           2.6793         estimate D2E/DX2                !
 ! D47   D(7,9,15,66)           21.6891         estimate D2E/DX2                !
 ! D48   D(18,9,15,66)        -160.1894         estimate D2E/DX2                !
 ! D49   D(7,9,18,20)         -172.0205         estimate D2E/DX2                !
 ! D50   D(15,9,18,20)           9.6576         estimate D2E/DX2                !
 ! D51   D(9,15,66,16)         -17.7426         estimate D2E/DX2                !
 ! D52   D(9,15,66,27)        -163.7623         estimate D2E/DX2                !
 ! D53   D(9,15,66,28)         -92.9358         estimate D2E/DX2                !
 ! D54   D(9,15,66,29)          60.6612         estimate D2E/DX2                !
 ! D55   D(9,15,66,30)          59.6018         estimate D2E/DX2                !
 ! D56   D(9,15,66,31)         164.9751         estimate D2E/DX2                !
 ! D57   D(9,15,66,32)         -92.7748         estimate D2E/DX2                !
 ! D58   D(9,15,66,33)          59.772          estimate D2E/DX2                !
 ! D59   D(9,15,66,35)         133.7011         estimate D2E/DX2                !
 ! D60   D(9,15,66,37)         -92.7642         estimate D2E/DX2                !
 ! D61   D(8,16,66,15)           5.0395         estimate D2E/DX2                !
 ! D62   D(8,16,66,27)          80.1031         estimate D2E/DX2                !
 ! D63   D(8,16,66,28)         150.2591         estimate D2E/DX2                !
 ! D64   D(8,16,66,29)         -71.5448         estimate D2E/DX2                !
 ! D65   D(8,16,66,30)        -103.2879         estimate D2E/DX2                !
 ! D66   D(8,16,66,32)         120.0167         estimate D2E/DX2                !
 ! D67   D(8,16,66,33)        -133.9065         estimate D2E/DX2                !
 ! D68   D(8,16,66,35)         -71.8083         estimate D2E/DX2                !
 ! D69   D(8,16,66,37)          88.3783         estimate D2E/DX2                !
 ! D70   D(8,17,19,21)         175.6586         estimate D2E/DX2                !
 ! D71   D(8,17,19,22)          56.0376         estimate D2E/DX2                !
 ! D72   D(8,17,19,23)         -64.886          estimate D2E/DX2                !
 ! D73   D(9,18,20,24)        -176.5223         estimate D2E/DX2                !
 ! D74   D(9,18,20,25)          64.4737         estimate D2E/DX2                !
 ! D75   D(9,18,20,26)         -56.3708         estimate D2E/DX2                !
 ! D76   D(29,30,41,48)          1.432          estimate D2E/DX2                !
 ! D77   D(29,30,41,49)       -118.9598         estimate D2E/DX2                !
 ! D78   D(29,30,41,50)        121.0592         estimate D2E/DX2                !
 ! D79   D(33,30,41,48)        111.9491         estimate D2E/DX2                !
 ! D80   D(33,30,41,49)         -8.4427         estimate D2E/DX2                !
 ! D81   D(33,30,41,50)       -128.4236         estimate D2E/DX2                !
 ! D82   D(34,30,41,48)       -124.5311         estimate D2E/DX2                !
 ! D83   D(34,30,41,49)        115.0771         estimate D2E/DX2                !
 ! D84   D(34,30,41,50)         -4.9039         estimate D2E/DX2                !
 ! D85   D(66,30,41,48)         60.5862         estimate D2E/DX2                !
 ! D86   D(66,30,41,49)        -59.8055         estimate D2E/DX2                !
 ! D87   D(66,30,41,50)       -179.7865         estimate D2E/DX2                !
 ! D88   D(34,30,66,15)         96.7081         estimate D2E/DX2                !
 ! D89   D(34,30,66,16)        176.5334         estimate D2E/DX2                !
 ! D90   D(34,30,66,27)         -6.25           estimate D2E/DX2                !
 ! D91   D(34,30,66,28)        -99.6746         estimate D2E/DX2                !
 ! D92   D(34,30,66,31)          2.9538         estimate D2E/DX2                !
 ! D93   D(34,30,66,32)       -118.4035         estimate D2E/DX2                !
 ! D94   D(34,30,66,35)         11.9264         estimate D2E/DX2                !
 ! D95   D(34,30,66,37)       -159.1847         estimate D2E/DX2                !
 ! D96   D(41,30,66,15)        -91.3079         estimate D2E/DX2                !
 ! D97   D(41,30,66,16)        -11.4826         estimate D2E/DX2                !
 ! D98   D(41,30,66,27)        165.7339         estimate D2E/DX2                !
 ! D99   D(41,30,66,28)         72.3093         estimate D2E/DX2                !
 ! D100  D(41,30,66,31)        174.9378         estimate D2E/DX2                !
 ! D101  D(41,30,66,32)         53.5805         estimate D2E/DX2                !
 ! D102  D(41,30,66,35)       -176.0896         estimate D2E/DX2                !
 ! D103  D(41,30,66,37)         12.7992         estimate D2E/DX2                !
 ! D104  D(27,31,40,45)         56.4939         estimate D2E/DX2                !
 ! D105  D(27,31,40,46)        -63.5029         estimate D2E/DX2                !
 ! D106  D(27,31,40,47)        176.2912         estimate D2E/DX2                !
 ! D107  D(35,31,40,45)        -52.3522         estimate D2E/DX2                !
 ! D108  D(35,31,40,46)       -172.3489         estimate D2E/DX2                !
 ! D109  D(35,31,40,47)         67.4452         estimate D2E/DX2                !
 ! D110  D(36,31,40,45)       -178.2316         estimate D2E/DX2                !
 ! D111  D(36,31,40,46)         61.7717         estimate D2E/DX2                !
 ! D112  D(36,31,40,47)        -58.4342         estimate D2E/DX2                !
 ! D113  D(66,31,40,45)          2.2038         estimate D2E/DX2                !
 ! D114  D(66,31,40,46)       -117.7929         estimate D2E/DX2                !
 ! D115  D(66,31,40,47)        122.0012         estimate D2E/DX2                !
 ! D116  D(36,31,66,15)         -1.784          estimate D2E/DX2                !
 ! D117  D(36,31,66,28)       -146.2413         estimate D2E/DX2                !
 ! D118  D(36,31,66,29)         73.0804         estimate D2E/DX2                !
 ! D119  D(36,31,66,30)        105.2906         estimate D2E/DX2                !
 ! D120  D(36,31,66,32)       -115.0393         estimate D2E/DX2                !
 ! D121  D(36,31,66,33)        136.9499         estimate D2E/DX2                !
 ! D122  D(36,31,66,37)        -83.2463         estimate D2E/DX2                !
 ! D123  D(40,31,66,15)        177.5162         estimate D2E/DX2                !
 ! D124  D(40,31,66,28)         33.0589         estimate D2E/DX2                !
 ! D125  D(40,31,66,29)       -107.6194         estimate D2E/DX2                !
 ! D126  D(40,31,66,30)        -75.4092         estimate D2E/DX2                !
 ! D127  D(40,31,66,32)         64.2609         estimate D2E/DX2                !
 ! D128  D(40,31,66,33)        -43.7499         estimate D2E/DX2                !
 ! D129  D(40,31,66,37)         96.0539         estimate D2E/DX2                !
 ! D130  D(28,32,39,42)        123.6729         estimate D2E/DX2                !
 ! D131  D(28,32,39,43)          2.7451         estimate D2E/DX2                !
 ! D132  D(28,32,39,44)       -117.1498         estimate D2E/DX2                !
 ! D133  D(37,32,39,42)         12.6579         estimate D2E/DX2                !
 ! D134  D(37,32,39,43)       -108.2699         estimate D2E/DX2                !
 ! D135  D(37,32,39,44)        131.8352         estimate D2E/DX2                !
 ! D136  D(38,32,39,42)       -112.5435         estimate D2E/DX2                !
 ! D137  D(38,32,39,43)        126.5287         estimate D2E/DX2                !
 ! D138  D(38,32,39,44)          6.6338         estimate D2E/DX2                !
 ! D139  D(66,32,39,42)         72.1695         estimate D2E/DX2                !
 ! D140  D(66,32,39,43)        -48.7583         estimate D2E/DX2                !
 ! D141  D(66,32,39,44)       -168.6531         estimate D2E/DX2                !
 ! D142  D(38,32,66,15)         94.8501         estimate D2E/DX2                !
 ! D143  D(38,32,66,16)         17.0278         estimate D2E/DX2                !
 ! D144  D(38,32,66,27)        174.3242         estimate D2E/DX2                !
 ! D145  D(38,32,66,29)         -8.9663         estimate D2E/DX2                !
 ! D146  D(38,32,66,30)        -48.4101         estimate D2E/DX2                !
 ! D147  D(38,32,66,31)       -171.0363         estimate D2E/DX2                !
 ! D148  D(38,32,66,33)        -66.4475         estimate D2E/DX2                !
 ! D149  D(38,32,66,35)       -155.4662         estimate D2E/DX2                !
 ! D150  D(39,32,66,15)        -92.1631         estimate D2E/DX2                !
 ! D151  D(39,32,66,16)       -169.9855         estimate D2E/DX2                !
 ! D152  D(39,32,66,27)        -12.6891         estimate D2E/DX2                !
 ! D153  D(39,32,66,29)        164.0205         estimate D2E/DX2                !
 ! D154  D(39,32,66,30)        124.5766         estimate D2E/DX2                !
 ! D155  D(39,32,66,31)          1.9504         estimate D2E/DX2                !
 ! D156  D(39,32,66,33)        106.5393         estimate D2E/DX2                !
 ! D157  D(39,32,66,35)         17.5205         estimate D2E/DX2                !
 ! D158  D(32,39,42,61)         13.4403         estimate D2E/DX2                !
 ! D159  D(43,39,42,61)        134.9205         estimate D2E/DX2                !
 ! D160  D(44,39,42,61)       -105.5909         estimate D2E/DX2                !
 ! D161  D(39,42,61,58)        -18.3078         estimate D2E/DX2                !
 ! D162  D(1,51,67,7)         -172.4273         estimate D2E/DX2                !
 ! D163  D(1,51,67,68)         -50.4719         estimate D2E/DX2                !
 ! D164  D(1,51,67,69)          60.1747         estimate D2E/DX2                !
 ! D165  D(52,51,67,7)          -7.7703         estimate D2E/DX2                !
 ! D166  D(52,51,67,68)        114.185          estimate D2E/DX2                !
 ! D167  D(52,51,67,69)       -135.1684         estimate D2E/DX2                !
 ! D168  D(54,53,64,65)         44.1406         estimate D2E/DX2                !
 ! D169  D(54,53,64,70)       -135.54           estimate D2E/DX2                !
 ! D170  D(55,53,64,65)       -160.1334         estimate D2E/DX2                !
 ! D171  D(55,53,64,70)         20.1861         estimate D2E/DX2                !
 ! D172  D(59,56,58,57)        179.131          estimate D2E/DX2                !
 ! D173  D(59,56,58,61)         -1.6612         estimate D2E/DX2                !
 ! D174  D(70,56,58,57)          0.1653         estimate D2E/DX2                !
 ! D175  D(70,56,58,61)        179.3731         estimate D2E/DX2                !
 ! D176  D(58,56,70,64)         -1.7516         estimate D2E/DX2                !
 ! D177  D(58,56,70,71)        177.295          estimate D2E/DX2                !
 ! D178  D(59,56,70,64)        179.2493         estimate D2E/DX2                !
 ! D179  D(59,56,70,71)         -1.704          estimate D2E/DX2                !
 ! D180  D(60,57,58,56)        179.9072         estimate D2E/DX2                !
 ! D181  D(60,57,58,61)          0.6815         estimate D2E/DX2                !
 ! D182  D(65,57,58,56)          1.2967         estimate D2E/DX2                !
 ! D183  D(65,57,58,61)       -177.929          estimate D2E/DX2                !
 ! D184  D(58,57,65,64)         -1.0952         estimate D2E/DX2                !
 ! D185  D(60,57,65,64)       -179.7813         estimate D2E/DX2                !
 ! D186  D(56,58,61,42)       -117.0539         estimate D2E/DX2                !
 ! D187  D(57,58,61,42)         62.1336         estimate D2E/DX2                !
 ! D188  D(53,64,65,57)        179.6919         estimate D2E/DX2                !
 ! D189  D(70,64,65,57)         -0.6325         estimate D2E/DX2                !
 ! D190  D(53,64,70,56)       -178.2738         estimate D2E/DX2                !
 ! D191  D(53,64,70,71)          2.6206         estimate D2E/DX2                !
 ! D192  D(65,64,70,56)          2.0763         estimate D2E/DX2                !
 ! D193  D(65,64,70,71)       -177.0294         estimate D2E/DX2                !
 --------------------------------------------------------------------------------
 Trust Radius=3.00D-01 FncErr=1.00D-07 GrdErr=1.00D-06 EigMax=2.50D+02 EigMin=1.00D-04
 Number of steps in this run=    426 maximum allowed number of steps=    426.
 GradGradGradGradGradGradGradGradGradGradGradGradGradGradGradGradGradGrad

 Leave Link  103 at Mon Apr 28 14:03:29 2025, MaxMem= 12348030976 cpu:               1.2 elap:               0.1
 (Enter /sysapps/ubuntu-applications/gaussian-new/avx/g16/l202.exe)
 Stoichiometry    C23H18F9N4O13S3Sc
 Framework group  C1[X(C23H18F9N4O13S3Sc)]
 Deg. of freedom   207
 Full point group                 C1      NOp   1
 Largest Abelian subgroup         C1      NOp   1
 Largest concise Abelian subgroup C1      NOp   1
                         Standard orientation:                         
 ---------------------------------------------------------------------
 Center     Atomic      Atomic             Coordinates (Angstroms)
 Number     Number       Type             X           Y           Z
 ---------------------------------------------------------------------
      1          6           0        5.503792    1.158598    0.431211
      2          6           0        6.263986    0.872680    1.593807
      3          6           0        7.597610    1.256856    1.667167
      4          6           0        8.187636    1.906990    0.579061
      5          6           0        7.452685    2.186322   -0.585512
      6          6           0        6.118577    1.823452   -0.663169
      7          6           0        1.722710    0.904926   -0.374234
      8          6           0        1.039314    1.410372    0.757978
      9          6           0        1.018459    0.153538   -1.333786
     10          1           0        5.779885    0.363967    2.430293
     11          1           0        8.181324    1.048335    2.565209
     12          1           0        9.237535    2.204143    0.633919
     13          1           0        7.933698    2.691085   -1.425037
     14          1           0        5.542011    2.037595   -1.565630
     15          8           0       -0.182380   -0.238112   -1.247202
     16          8           0       -0.203277    1.369642    0.975893
     17          8           0        1.813959    2.008048    1.656895
     18          8           0        1.713247   -0.198112   -2.415328
     19          6           0        1.194623    2.512882    2.837624
     20          6           0        1.021893   -0.807344   -3.500220
     21          1           0        2.003808    2.889286    3.472581
     22          1           0        0.645062    1.714455    3.355507
     23          1           0        0.499293    3.326237    2.594576
     24          1           0        1.787037   -1.065928   -4.241621
     25          1           0        0.300029   -0.102755   -3.937731
     26          1           0        0.481730   -1.709035   -3.179491
     27          8           0       -2.789586   -1.492963   -0.541560
     28          8           0       -2.787420    0.227783    1.819782
     29          8           0       -1.116705    2.310184   -1.487080
     30         16           0       -2.124387    3.201311   -0.860811
     31         16           0       -3.554721   -1.012201   -1.732518
     32         16           0       -1.974788   -0.882929    2.411535
     33          8           0       -2.844868    2.353981    0.144200
     34          8           0       -2.931440    4.038823   -1.712801
     35          8           0       -3.086155    0.389713   -1.936943
     36          8           0       -3.640434   -1.881446   -2.877079
     37          8           0       -0.935382   -1.204797    1.402638
     38          8           0       -1.557158   -0.731275    3.785107
     39          6           0       -3.133478   -2.350393    2.402594
     40          6           0       -5.265137   -0.806259   -1.089153
     41          6           0       -1.128065    4.380034    0.195380
     42          9           0       -2.580063   -3.349310    1.736732
     43          9           0       -4.282309   -2.028537    1.842821
     44          9           0       -3.349051   -2.730358    3.649118
     45          9           0       -5.236092    0.018193   -0.057321
     46          9           0       -5.737769   -1.978872   -0.710499
     47          9           0       -6.032696   -0.303542   -2.037785
     48          9           0        0.164323    4.121569    0.071396
     49          9           0       -1.475777    4.255127    1.463258
     50          9           0       -1.358494    5.617331   -0.200985
     51          6           0        4.137632    0.765233    0.392805
     52          1           0        3.749083    0.240026    1.273705
     53          6           0        4.499392   -2.578612   -0.814263
     54          6           0        5.545283   -2.897868    0.084704
     55          6           0        4.796012   -2.180945   -2.136677
     56          6           0        1.222084   -4.258098   -1.187076
     57          6           0        1.705141   -3.653021    1.068772
     58          6           0        0.821192   -4.226390    0.133474
     59          1           0        0.608477   -4.694984   -1.975540
     60          1           0        1.451479   -3.593726    2.128872
     61          1           0       -0.143519   -4.612916    0.458310
     62          7           0        6.422327   -3.103852    0.823477
     63          7           0        5.027216   -1.769980   -3.203356
     64          7           0        3.223674   -3.173906   -0.542720
     65          7           0        2.866935   -3.132967    0.734579
     66         21           0       -1.731453    0.470031   -0.107049
     67          6           0        3.159048    1.294448   -0.586894
     68          1           0        3.271822    2.395725   -0.526742
     69          1           0        3.485223    1.056936   -1.615271
     70          6           0        2.471164   -3.726383   -1.507190
     71          1           0        2.890633   -3.745333   -2.514227
 ---------------------------------------------------------------------
 Rotational constants (GHZ):           0.0677452           0.0367383           0.0308633
 Leave Link  202 at Mon Apr 28 14:03:29 2025, MaxMem= 12348030976 cpu:               1.0 elap:               0.1
 (Enter /sysapps/ubuntu-applications/gaussian-new/avx/g16/l301.exe)
 General basis read from cards:  (5D, 7F)
 Centers:      10     11     12     13     14     21     22     23     24     25
 Centers:      26     52     59     60     61     68     69     71
 S 3 1.00
     Exponent=  1.3010701000D+01 Coefficients=  1.9682158000D-02
     Exponent=  1.9622572000D+00 Coefficients=  1.3796524000D-01
     Exponent=  4.4453796000D-01 Coefficients=  4.7831935000D-01
 S 1 1.00
     Exponent=  1.2194962000D-01 Coefficients=  1.0000000000D+00
 P 1 1.00
     Exponent=  8.0000000000D-01 Coefficients=  1.0000000000D+00
 ****
 Centers:       1      2      3      4      5      6      7      8      9     19
 Centers:      20     39     40     41     51     53     54     55     56     57
 Centers:      58     67     70
 S 5 1.00
     Exponent=  1.2384016938D+03 Coefficients=  5.4568832082D-03
     Exponent=  1.8629004992D+02 Coefficients=  4.0638409211D-02
     Exponent=  4.2251176346D+01 Coefficients=  1.8025593888D-01
     Exponent=  1.1676557932D+01 Coefficients=  4.6315121755D-01
     Exponent=  3.5930506482D+00 Coefficients=  4.4087173314D-01
 S 1 1.00
     Exponent=  4.0245147363D-01 Coefficients=  1.0000000000D+00
 S 1 1.00
     Exponent=  1.3090182668D-01 Coefficients=  1.0000000000D+00
 P 3 1.00
     Exponent=  9.4680970621D+00 Coefficients=  3.8387871728D-02
     Exponent=  2.0103545142D+00 Coefficients=  2.1117025112D-01
     Exponent=  5.4771004707D-01 Coefficients=  5.1328172114D-01
 P 1 1.00
     Exponent=  1.5268613795D-01 Coefficients=  1.0000000000D+00
 D 1 1.00
     Exponent=  8.0000000000D-01 Coefficients=  1.0000000000D+00
 ****
 Centers:      62     63     64     65
 S 5 1.00
     Exponent=  1.7128415853D+03 Coefficients= -5.3934125305D-03
     Exponent=  2.5764812677D+02 Coefficients= -4.0221581118D-02
     Exponent=  5.8458245853D+01 Coefficients= -1.7931144990D-01
     Exponent=  1.6198367905D+01 Coefficients= -4.6376317823D-01
     Exponent=  5.0052600809D+00 Coefficients= -4.4171422662D-01
 S 1 1.00
     Exponent=  5.8731856571D-01 Coefficients=  1.0000000000D+00
 S 1 1.00
     Exponent=  1.8764592253D-01 Coefficients=  1.0000000000D+00
 P 3 1.00
     Exponent=  1.3571470233D+01 Coefficients= -4.0072398852D-02
     Exponent=  2.9257372874D+00 Coefficients= -2.1807045028D-01
     Exponent=  7.9927750754D-01 Coefficients= -5.1294466049D-01
 P 1 1.00
     Exponent=  2.1954348034D-01 Coefficients=  1.0000000000D+00
 D 1 1.00
     Exponent=  1.0000000000D+00 Coefficients=  1.0000000000D+00
 ****
 Centers:      15     16     17     18     27     28     29     33     34     35
 Centers:      36     37     38
 S 5 1.00
     Exponent=  2.2661767785D+03 Coefficients= -5.3431809926D-03
     Exponent=  3.4087010191D+02 Coefficients= -3.9890039230D-02
     Exponent=  7.7363135167D+01 Coefficients= -1.7853911985D-01
     Exponent=  2.1479644940D+01 Coefficients= -4.6427684959D-01
     Exponent=  6.6589433124D+00 Coefficients= -4.4309745172D-01
 S 1 1.00
     Exponent=  8.0975975668D-01 Coefficients=  1.0000000000D+00
 S 1 1.00
     Exponent=  2.5530772234D-01 Coefficients=  1.0000000000D+00
 P 3 1.00
     Exponent=  1.7721504317D+01 Coefficients=  4.3394573193D-02
     Exponent=  3.8635505440D+00 Coefficients=  2.3094120765D-01
     Exponent=  1.0480920883D+00 Coefficients=  5.1375311064D-01
 P 1 1.00
     Exponent=  2.7641544411D-01 Coefficients=  1.0000000000D+00
 D 1 1.00
     Exponent=  1.2000000000D+00 Coefficients=  1.0000000000D+00
 ****
 Centers:      42     43     44     45     46     47     48     49     50
 S 5 1.00
     Exponent=  2.8948325990D+03 Coefficients= -5.3408255515D-03
     Exponent=  4.3541939120D+02 Coefficients= -3.9904258866D-02
     Exponent=  9.8843328866D+01 Coefficients= -1.7912768038D-01
     Exponent=  2.7485198001D+01 Coefficients= -4.6758090825D-01
     Exponent=  8.5405498171D+00 Coefficients= -4.4653131020D-01
 S 1 1.00
     Exponent=  1.0654578038D+00 Coefficients=  1.0000000000D+00
 S 1 1.00
     Exponent=  3.3247346748D-01 Coefficients=  1.0000000000D+00
 P 3 1.00
     Exponent=  2.2696633924D+01 Coefficients= -4.5212874436D-02
     Exponent=  4.9872339257D+00 Coefficients= -2.3754317067D-01
     Exponent=  1.3491613954D+00 Coefficients= -5.1287353587D-01
 P 1 1.00
     Exponent=  3.4829881977D-01 Coefficients=  1.0000000000D+00
 D 1 1.00
     Exponent=  1.4000000000D+00 Coefficients=  1.0000000000D+00
 ****
 Centers:      30     31     32
 S 5 1.00
     Exponent=  9.1849303010D+03 Coefficients= -2.2294387756D-03
     Exponent=  1.3815105503D+03 Coefficients= -1.6683029937D-02
     Exponent=  3.1387147580D+02 Coefficients= -7.5262436116D-02
     Exponent=  8.8053870623D+01 Coefficients= -1.9376827038D-01
     Exponent=  2.7039914905D+01 Coefficients= -1.7718020803D-01
 S 3 1.00
     Exponent=  4.5648731303D+01 Coefficients= -1.0736062573D-01
     Exponent=  4.9664522326D+00 Coefficients=  6.5066293018D-01
     Exponent=  2.0116242047D+00 Coefficients=  5.9712155354D-01
 S 1 1.00
     Exponent=  3.5661077013D-01 Coefficients=  1.0000000000D+00
 S 1 1.00
     Exponent=  1.3507221477D-01 Coefficients=  1.0000000000D+00
 P 5 1.00
     Exponent=  2.6198233439D+02 Coefficients= -9.2729929822D-03
     Exponent=  6.1306894736D+01 Coefficients= -6.6547669241D-02
     Exponent=  1.9103729887D+01 Coefficients= -2.4828595903D-01
     Exponent=  6.6567720378D+00 Coefficients= -4.8703847402D-01
     Exponent=  2.3959635161D+00 Coefficients= -3.9337850312D-01
 P 1 1.00
     Exponent=  6.1776161679D-01 Coefficients=  1.0000000000D+00
 P 1 1.00
     Exponent=  1.6993376871D-01 Coefficients=  1.0000000000D+00
 D 1 1.00
     Exponent=  5.5000000000D-01 Coefficients=  1.0000000000D+00
 ****
 Centers:      66
 S 8 1.00
     Exponent=  1.9161291874D+05 Coefficients=  2.3076475942D-04
     Exponent=  2.8723850363D+04 Coefficients=  1.7890329946D-03
     Exponent=  6.5370116490D+03 Coefficients=  9.2990401140D-03
     Exponent=  1.8503097171D+03 Coefficients=  3.7739438011D-02
     Exponent=  6.0238855156D+02 Coefficients=  1.2227148359D-01
     Exponent=  2.1617324766D+02 Coefficients=  2.8814821470D-01
     Exponent=  8.3712517880D+01 Coefficients=  4.0517543099D-01
     Exponent=  3.2908707189D+01 Coefficients=  2.0566019623D-01
 S 4 1.00
     Exponent=  2.1134393234D+02 Coefficients= -2.4527991462D-02
     Exponent=  6.5128920139D+01 Coefficients= -1.1570158142D-01
     Exponent=  1.0034311535D+01 Coefficients=  5.5995283317D-01
     Exponent=  4.1596884597D+00 Coefficients=  5.6087765073D-01
 S 2 1.00
     Exponent=  6.0009041613D+00 Coefficients= -2.2840494325D-01
     Exponent=  9.8255784150D-01 Coefficients=  7.1948970378D-01
 S 1 1.00
     Exponent=  4.2483192773D-01 Coefficients=  1.0000000000D+00
 S 1 1.00
     Exponent=  7.7185462096D-02 Coefficients=  1.0000000000D+00
 S 1 1.00
     Exponent=  3.0147219702D-02 Coefficients=  1.0000000000D+00
 P 6 1.00
     Exponent=  9.4734122823D+02 Coefficients=  2.4737208744D-03
     Exponent=  2.2409699732D+02 Coefficients=  1.9742967060D-02
     Exponent=  7.1560334882D+01 Coefficients=  9.0357147549D-02
     Exponent=  2.6444824490D+01 Coefficients=  2.5201602503D-01
     Exponent=  1.0393798285D+01 Coefficients=  3.9675535929D-01
     Exponent=  4.1606304559D+00 Coefficients=  2.3208624517D-01
 P 3 1.00
     Exponent=  1.5565737135D+01 Coefficients= -2.7129423974D-02
     Exponent=  2.1121544865D+00 Coefficients=  5.5109256629D-01
     Exponent=  8.4184709021D-01 Coefficients=  1.0090635806D+00
 P 1 1.00
     Exponent=  3.2297542652D-01 Coefficients=  1.0000000000D+00
 P 1 1.00
     Exponent=  8.9748000000D-02 Coefficients=  1.0000000000D+00
 D 4 1.00
     Exponent=  3.0989390993D+01 Coefficients=  1.1902837431D-02
     Exponent=  8.6905465069D+00 Coefficients=  6.7655856850D-02
     Exponent=  2.9520256337D+00 Coefficients=  2.1332539722D-01
     Exponent=  1.0761910745D+00 Coefficients=  3.8391075578D-01
 D 1 1.00
     Exponent=  3.8338915095D-01 Coefficients=  4.3354716259D-01
 D 1 1.00
     Exponent=  1.2534686113D-01 Coefficients=  2.4509263822D-01
 D 1 1.00
     Exponent=  4.1000000000D-02 Coefficients=  1.0000000000D+00
 F 1 1.00
     Exponent=  3.4500000000D-01 Coefficients=  1.0000000000D+00
 ****
 Ernie: Thresh=  0.10000D-02 Tol=  0.10000D-05 Strict=F.
 There are   934 symmetry adapted cartesian basis functions of A   symmetry.
 There are   875 symmetry adapted basis functions of A   symmetry.
   875 basis functions,  1564 primitive gaussians,   934 cartesian basis functions
   219 alpha electrons      219 beta electrons
       nuclear repulsion energy     10358.9729954466 Hartrees.
 IExCor= 7252 DFT=T Ex+Corr=MN15 ExCW=0 ScaHFX=  0.440000
 ScaDFX=  1.000000  1.000000  1.000000  1.000000 ScalE2=  1.000000  1.000000
 IRadAn=      5 IRanWt=     -1 IRanGd=            0 ICorTp=0 IEmpDi=  4
 NAtoms=   71 NActive=   71 NUniq=   71 SFac= 1.00D+00 NAtFMM=   60 NAOKFM=T Big=T
 Integral buffers will be    131072 words long.
 Raffenetti 2 integral format.
 Two-electron integral symmetry is turned on.
 ------------------------------------------------------------------------------
 Polarizable Continuum Model (PCM)
 =================================
 Model                : PCM.
 Atomic radii         : SMD-Coulomb.
 Polarization charges : Total charges.
 Charge compensation  : None.
 Solution method      : On-the-fly selection.
 Cavity type          : VdW (van der Waals Surface) (Alpha=1.000).
 Cavity algorithm     : GePol (No added spheres)
                        Default sphere list used, NSphG=   71.
                        Lebedev-Laikov grids with approx.  5.0 points / Ang**2.
                        Smoothing algorithm: York/Karplus (Gamma=1.0000).
                        Polarization charges: spherical gaussians, with
                                              point-specific exponents (IZeta= 3).
                        Self-potential: point-specific (ISelfS= 7).
                        Self-field    : sphere-specific E.n sum rule (ISelfD= 2).
 1st derivatives      : Analytical E(r).r(x)/FMM algorithm (CHGder, D1EAlg=3).
                        Cavity 1st derivative terms included.
 Solvent              : DiChloroEthane, Eps=  10.125000 Eps(inf)=   2.087447
 ------------------------------------------------------------------------------
 GePol: Number of generator spheres                  =      71
 GePol: Total number of spheres                      =      71
 GePol: Number of exposed spheres                    =      70 ( 98.59%)
 GePol: Number of points                             =    5562
 GePol: Average weight of points                     =       0.13
 GePol: Minimum weight of points                     =   0.30D-10
 GePol: Maximum weight of points                     =    0.21501
 GePol: Number of points with low weight             =     325
 GePol: Fraction of low-weight points (<1% of avg)   =       5.84%
 GePol: Cavity surface area                          =    706.454 Ang**2
 GePol: Cavity volume                                =    790.357 Ang**3
 ------------------------------------------------------------------------------
 Atomic radii for non-electrostatic terms: SMD-CDS.
 ------------------------------------------------------------------------------
 PCM non-electrostatic energy =         0.0045688715 Hartrees.
 Nuclear repulsion after PCM non-electrostatic terms =    10358.9775643181 Hartrees.
 Leave Link  301 at Mon Apr 28 14:03:29 2025, MaxMem= 12348030976 cpu:               6.2 elap:               0.3
 (Enter /sysapps/ubuntu-applications/gaussian-new/avx/g16/l302.exe)
 NPDir=0 NMtPBC=     1 NCelOv=     1 NCel=       1 NClECP=     1 NCelD=      1
         NCelK=      1 NCelE2=     1 NClLst=     1 CellRange=     0.0.
 One-electron integrals computed using PRISM.
 One-electron integral symmetry used in STVInt
 NBasis=   875 RedAO= T EigKep=  3.05D-04  NBF=   875
 NBsUse=   875 1.00D-06 EigRej= -1.00D+00 NBFU=   875
 Precomputing XC quadrature grid using
 IXCGrd= 4 IRadAn=           5 IRanWt=          -1 IRanGd=           0 AccXCQ= 0.00D+00.
 Generated NRdTot=       0 NPtTot=           0 NUsed=           0 NTot=          32
 NSgBfM=   875   873   874   875   875 MxSgAt=    71 MxSgA2=    71.
 Leave Link  302 at Mon Apr 28 14:03:31 2025, MaxMem= 12348030976 cpu:              41.2 elap:               1.8
 (Enter /sysapps/ubuntu-applications/gaussian-new/avx/g16/l303.exe)
 DipDrv:  MaxL=1.
 Leave Link  303 at Mon Apr 28 14:03:32 2025, MaxMem= 12348030976 cpu:               5.0 elap:               0.3
 (Enter /sysapps/ubuntu-applications/gaussian-new/avx/g16/l401.exe)
 ExpMin= 3.01D-02 ExpMax= 1.92D+05 ExpMxC= 1.85D+03 IAcc=3 IRadAn=         5 AccDes= 0.00D+00
 Harris functional with IExCor= 1009 and IRadAn=       5 diagonalized for initial guess.
 HarFok:  IExCor= 1009 AccDes= 0.00D+00 IRadAn=         5 IDoV= 1 UseB2=F ITyADJ=14
 ICtDFT=  3500011 ScaDFX=  1.000000  1.000000  1.000000  1.000000
 FoFCou: FMM=F IPFlag=           0 FMFlag=      100000 FMFlg1=        2001
         NFxFlg=           0 DoJE=T BraDBF=F KetDBF=T FulRan=T
         wScrn=  0.000000 ICntrl=       500 IOpCl=  0 I1Cent=   200000004 NGrid=           0
         NMat0=    1 NMatS0=      1 NMatT0=    0 NMatD0=    1 NMtDS0=    0 NMtDT0=    0
 Petite list used in FoFCou.
 Harris En= -4932.06299043870    
 JPrj=0 DoOrth=F DoCkMO=F.
 Leave Link  401 at Mon Apr 28 14:03:37 2025, MaxMem= 12348030976 cpu:             114.7 elap:               4.8
 (Enter /sysapps/ubuntu-applications/gaussian-new/avx/g16/l502.exe)
 Integral symmetry usage will be decided dynamically.
 Closed shell SCF:
 Using DIIS extrapolation, IDIIS=  1040.
 NGot= 12348030976 LenX= 12346253615 LenY= 12345380325
 Requested convergence on RMS density matrix=1.00D-08 within 500 cycles.
 Requested convergence on MAX density matrix=1.00D-06.
 Requested convergence on             energy=1.00D-06.
 No special actions if energy rises.
 Fock matrices will be formed incrementally for  20 cycles.

 Cycle   1  Pass 1  IDiag  1:
 FoFJK:  IHMeth= 1 ICntrl=       0 DoSepK=F KAlg= 0 I1Cent=           0 FoldK=F
 IRaf= 780000000 NMat=       1 IRICut=       1 DoRegI=T DoRafI=F ISym2E= 0 IDoP0=0 IntGTp=1.
 FoFCou: FMM=T IPFlag=           0 FMFlag=      100000 FMFlg1=        2001
         NFxFlg=           0 DoJE=F BraDBF=F KetDBF=F FulRan=T
         wScrn=  0.000000 ICntrl=         0 IOpCl=  0 I1Cent=           0 NGrid=           0
         NMat0=    1 NMatS0=      1 NMatT0=    0 NMatD0=    1 NMtDS0=    0 NMtDT0=    0
 Symmetry not used in FoFCou.
 FMM levels:  10  Number of levels for PrismC:   9
 Inv3:  Mode=1 IEnd=    92807532.
 Iteration    1 A*A^-1 deviation from unit magnitude is 7.33D-15 for   5557.
 Iteration    1 A*A^-1 deviation from orthogonality  is 4.55D-15 for   5559   4483.
 Iteration    1 A^-1*A deviation from unit magnitude is 7.22D-15 for   5557.
 Iteration    1 A^-1*A deviation from orthogonality  is 1.12D-12 for   3153   3122.
 E= -4930.42160746263    
 DIIS: error= 2.93D-02 at cycle   1 NSaved=   1.
 NSaved= 1 IEnMin= 1 EnMin= -4930.42160746263     IErMin= 1 ErrMin= 2.93D-02
 ErrMax= 2.93D-02  0.00D+00 EMaxC= 1.00D-01 BMatC= 1.93D+00 BMatP= 1.93D+00
 IDIUse=3 WtCom= 7.07D-01 WtEn= 2.93D-01
 Coeff-Com:  0.100D+01
 Coeff-En:   0.100D+01
 Coeff:      0.100D+01
 Gap=     0.133 Goal=   None    Shift=    0.000
 GapD=    0.133 DampG=1.000 DampE=0.250 DampFc=0.2500 IDamp=-1.
 Damping current iteration by 2.50D-01
 RMSDP=3.32D-03 MaxDP=3.52D-01              OVMax= 2.59D-01

 Cycle   2  Pass 1  IDiag  1:
 RMSU=  8.28D-04    CP:  9.97D-01
 E= -4930.93735650383     Delta-E=       -0.515749041202 Rises=F Damp=T
 DIIS: error= 1.68D-02 at cycle   2 NSaved=   2.
 NSaved= 2 IEnMin= 2 EnMin= -4930.93735650383     IErMin= 2 ErrMin= 1.68D-02
 ErrMax= 1.68D-02  0.00D+00 EMaxC= 1.00D-01 BMatC= 3.45D-01 BMatP= 1.93D+00
 IDIUse=3 WtCom= 8.32D-01 WtEn= 1.68D-01
 Coeff-Com: -0.594D+00 0.159D+01
 Coeff-En:   0.000D+00 0.100D+01
 Coeff:     -0.494D+00 0.149D+01
 Gap=     0.158 Goal=   None    Shift=    0.000
 RMSDP=9.08D-04 MaxDP=5.86D-02 DE=-5.16D-01 OVMax= 1.63D-01

 Cycle   3  Pass 1  IDiag  1:
 RMSU=  7.07D-04    CP:  9.92D-01  1.68D+00
 E= -4931.84745779460     Delta-E=       -0.910101290763 Rises=F Damp=F
 DIIS: error= 5.53D-03 at cycle   3 NSaved=   3.
 NSaved= 3 IEnMin= 3 EnMin= -4931.84745779460     IErMin= 3 ErrMin= 5.53D-03
 ErrMax= 5.53D-03  0.00D+00 EMaxC= 1.00D-01 BMatC= 2.99D-02 BMatP= 3.45D-01
 IDIUse=3 WtCom= 9.45D-01 WtEn= 5.53D-02
 Coeff-Com: -0.221D+00 0.546D+00 0.675D+00
 Coeff-En:   0.000D+00 0.000D+00 0.100D+01
 Coeff:     -0.209D+00 0.516D+00 0.693D+00
 Gap=     0.121 Goal=   None    Shift=    0.000
 RMSDP=2.92D-04 MaxDP=2.95D-02 DE=-9.10D-01 OVMax= 4.81D-02

 Cycle   4  Pass 1  IDiag  1:
 RMSU=  2.52D-04    CP:  9.93D-01  1.66D+00  7.94D-01
 E= -4931.86567131785     Delta-E=       -0.018213523250 Rises=F Damp=F
 DIIS: error= 4.60D-03 at cycle   4 NSaved=   4.
 NSaved= 4 IEnMin= 4 EnMin= -4931.86567131785     IErMin= 4 ErrMin= 4.60D-03
 ErrMax= 4.60D-03  0.00D+00 EMaxC= 1.00D-01 BMatC= 1.32D-02 BMatP= 2.99D-02
 IDIUse=3 WtCom= 9.54D-01 WtEn= 4.60D-02
 Coeff-Com: -0.763D-01 0.156D+00 0.400D+00 0.521D+00
 Coeff-En:   0.000D+00 0.000D+00 0.259D+00 0.741D+00
 Coeff:     -0.728D-01 0.149D+00 0.393D+00 0.531D+00
 Gap=     0.118 Goal=   None    Shift=    0.000
 RMSDP=1.32D-04 MaxDP=1.46D-02 DE=-1.82D-02 OVMax= 2.42D-02

 Cycle   5  Pass 1  IDiag  1:
 RMSU=  9.71D-05    CP:  9.93D-01  1.67D+00  8.46D-01  6.81D-01
 E= -4931.87550506725     Delta-E=       -0.009833749406 Rises=F Damp=F
 DIIS: error= 2.01D-03 at cycle   5 NSaved=   5.
 NSaved= 5 IEnMin= 5 EnMin= -4931.87550506725     IErMin= 5 ErrMin= 2.01D-03
 ErrMax= 2.01D-03  0.00D+00 EMaxC= 1.00D-01 BMatC= 1.66D-03 BMatP= 1.32D-02
 IDIUse=3 WtCom= 9.80D-01 WtEn= 2.01D-02
 Coeff-Com: -0.208D-01 0.269D-01 0.131D+00 0.299D+00 0.564D+00
 Coeff-En:   0.000D+00 0.000D+00 0.000D+00 0.678D-01 0.932D+00
 Coeff:     -0.204D-01 0.263D-01 0.128D+00 0.295D+00 0.571D+00
 Gap=     0.119 Goal=   None    Shift=    0.000
 RMSDP=4.39D-05 MaxDP=6.03D-03 DE=-9.83D-03 OVMax= 1.03D-02

 Cycle   6  Pass 1  IDiag  1:
 RMSU=  2.90D-05    CP:  9.93D-01  1.68D+00  8.55D-01  7.22D-01  6.98D-01
 E= -4931.87685284952     Delta-E=       -0.001347782265 Rises=F Damp=F
 DIIS: error= 4.77D-04 at cycle   6 NSaved=   6.
 NSaved= 6 IEnMin= 6 EnMin= -4931.87685284952     IErMin= 6 ErrMin= 4.77D-04
 ErrMax= 4.77D-04  0.00D+00 EMaxC= 1.00D-01 BMatC= 1.39D-04 BMatP= 1.66D-03
 IDIUse=3 WtCom= 9.95D-01 WtEn= 4.77D-03
 Coeff-Com: -0.405D-02-0.773D-03 0.277D-01 0.959D-01 0.294D+00 0.587D+00
 Coeff-En:   0.000D+00 0.000D+00 0.000D+00 0.000D+00 0.000D+00 0.100D+01
 Coeff:     -0.403D-02-0.770D-03 0.276D-01 0.954D-01 0.292D+00 0.589D+00
 Gap=     0.119 Goal=   None    Shift=    0.000
 RMSDP=1.50D-05 MaxDP=1.38D-03 DE=-1.35D-03 OVMax= 3.13D-03

 Cycle   7  Pass 1  IDiag  1:
 RMSU=  1.18D-05    CP:  9.93D-01  1.68D+00  8.59D-01  7.32D-01  7.56D-01
                    CP:  7.85D-01
 E= -4931.87696533923     Delta-E=       -0.000112489714 Rises=F Damp=F
 DIIS: error= 1.47D-04 at cycle   7 NSaved=   7.
 NSaved= 7 IEnMin= 7 EnMin= -4931.87696533923     IErMin= 7 ErrMin= 1.47D-04
 ErrMax= 1.47D-04  0.00D+00 EMaxC= 1.00D-01 BMatC= 1.92D-05 BMatP= 1.39D-04
 IDIUse=3 WtCom= 9.99D-01 WtEn= 1.47D-03
 Coeff-Com: -0.458D-03-0.229D-02 0.417D-03 0.157D-01 0.927D-01 0.328D+00
 Coeff-Com:  0.566D+00
 Coeff-En:   0.000D+00 0.000D+00 0.000D+00 0.000D+00 0.000D+00 0.106D-01
 Coeff-En:   0.989D+00
 Coeff:     -0.457D-03-0.229D-02 0.416D-03 0.157D-01 0.926D-01 0.328D+00
 Coeff:      0.566D+00
 Gap=     0.119 Goal=   None    Shift=    0.000
 RMSDP=5.79D-06 MaxDP=6.48D-04 DE=-1.12D-04 OVMax= 2.04D-03

[...]
 Alpha  occ. eigenvalues --   -0.54053  -0.53844  -0.53483  -0.53210  -0.53083
 Alpha  occ. eigenvalues --   -0.52734  -0.52548  -0.52507  -0.52214  -0.51682
 Alpha  occ. eigenvalues --   -0.51368  -0.51240  -0.51091  -0.51059  -0.50764
 Alpha  occ. eigenvalues --   -0.50611  -0.49810  -0.48986  -0.48937  -0.48917
 Alpha  occ. eigenvalues --   -0.48709  -0.48456  -0.48010  -0.47181  -0.46839
 Alpha  occ. eigenvalues --   -0.46584  -0.46242  -0.45191  -0.44942  -0.44638
 Alpha  occ. eigenvalues --   -0.44535  -0.44406  -0.43845  -0.43464  -0.42627
 Alpha  occ. eigenvalues --   -0.42319  -0.42146  -0.41853  -0.41742  -0.41580
 Alpha  occ. eigenvalues --   -0.40984  -0.40511  -0.40426  -0.40086  -0.39868
 Alpha  occ. eigenvalues --   -0.39645  -0.39312  -0.39256  -0.38991  -0.38653
 Alpha  occ. eigenvalues --   -0.38607  -0.38245  -0.38012  -0.37942  -0.37506
 Alpha  occ. eigenvalues --   -0.37368  -0.37087  -0.36819  -0.36360  -0.36174
 Alpha  occ. eigenvalues --   -0.36086  -0.35750  -0.35690  -0.35079  -0.34872
 Alpha  occ. eigenvalues --   -0.33836  -0.32275  -0.26648  -0.24684
 Alpha virt. eigenvalues --   -0.12256  -0.06958  -0.03453  -0.01788  -0.00792
 Alpha virt. eigenvalues --   -0.00283   0.01131   0.01569   0.01813   0.02220
 Alpha virt. eigenvalues --    0.03660   0.06087   0.06689   0.07372   0.08141
 Alpha virt. eigenvalues --    0.09008   0.09198   0.09693   0.09781   0.09975
 Alpha virt. eigenvalues --    0.10160   0.10396   0.10490   0.10667   0.11018
 Alpha virt. eigenvalues --    0.11064   0.11255   0.11762   0.12019   0.12194
 Alpha virt. eigenvalues --    0.12949   0.13549   0.14014   0.14276   0.14772
 Alpha virt. eigenvalues --    0.15124   0.15340   0.15582   0.16052   0.16195
 Alpha virt. eigenvalues --    0.16761   0.17032   0.17367   0.17932   0.18146
 Alpha virt. eigenvalues --    0.18445   0.18717   0.19173   0.19726   0.20284
 Alpha virt. eigenvalues --    0.20360   0.20726   0.21069   0.21412   0.21798
 Alpha virt. eigenvalues --    0.22517   0.23196   0.23535   0.24095   0.24205
 Alpha virt. eigenvalues --    0.24562   0.24778   0.25521   0.25741   0.25981
 Alpha virt. eigenvalues --    0.26448   0.26717   0.27096   0.27458   0.27747
 Alpha virt. eigenvalues --    0.28190   0.28410   0.28910   0.29360   0.29581
 Alpha virt. eigenvalues --    0.29991   0.30423   0.30635   0.31307   0.31760
 Alpha virt. eigenvalues --    0.32280   0.32541   0.33025   0.33229   0.34705
 Alpha virt. eigenvalues --    0.36829   0.37112   0.38280   0.38616   0.38712
 Alpha virt. eigenvalues --    0.39751   0.39792   0.40545   0.40850   0.41118
 Alpha virt. eigenvalues --    0.41406   0.41896   0.42127   0.42617   0.43539
 Alpha virt. eigenvalues --    0.43942   0.44564   0.45125   0.45344   0.46048
 Alpha virt. eigenvalues --    0.46169   0.46404   0.46525   0.46897   0.47637
 Alpha virt. eigenvalues --    0.48136   0.48418   0.48472   0.48649   0.49171
 Alpha virt. eigenvalues --    0.49313   0.49771   0.49957   0.49979   0.50488
 Alpha virt. eigenvalues --    0.50677   0.51046   0.51471   0.51763   0.51809
 Alpha virt. eigenvalues --    0.52140   0.52419   0.52734   0.53225   0.54003
 Alpha virt. eigenvalues --    0.54290   0.54500   0.55266   0.55655   0.55854
 Alpha virt. eigenvalues --    0.56546   0.57590   0.58043   0.58455   0.58711
 Alpha virt. eigenvalues --    0.59520   0.60008   0.60090   0.60620   0.61195
 Alpha virt. eigenvalues --    0.61990   0.62143   0.62939   0.63128   0.63330
 Alpha virt. eigenvalues --    0.64053   0.64199   0.65091   0.65291   0.65774
 Alpha virt. eigenvalues --    0.66118   0.66464   0.66529   0.67135   0.67558
 Alpha virt. eigenvalues --    0.67927   0.67948   0.68163   0.68546   0.69050
 Alpha virt. eigenvalues --    0.69103   0.69284   0.69626   0.70157   0.70324
 Alpha virt. eigenvalues --    0.70698   0.70794   0.71288   0.71538   0.71624
 Alpha virt. eigenvalues --    0.72032   0.72218   0.72462   0.73089   0.73329
 Alpha virt. eigenvalues --    0.73401   0.73720   0.74080   0.74627   0.75247
 Alpha virt. eigenvalues --    0.75360   0.75624   0.75979   0.76156   0.76512
 Alpha virt. eigenvalues --    0.76592   0.77046   0.77301   0.77830   0.78240
 Alpha virt. eigenvalues --    0.79027   0.79323   0.79914   0.80342   0.81066
 Alpha virt. eigenvalues --    0.81487   0.81915   0.81994   0.83430   0.84312
 Alpha virt. eigenvalues --    0.84780   0.85279   0.85931   0.86684   0.87675
 Alpha virt. eigenvalues --    0.87900   0.88744   0.89143   0.89263   0.90250
 Alpha virt. eigenvalues --    0.90437   0.91093   0.92158   0.92454   0.93130
 Alpha virt. eigenvalues --    0.93315   0.93456   0.94165   0.95133   0.95663
 Alpha virt. eigenvalues --    0.96013   0.96860   0.98031   0.98354   0.99181
 Alpha virt. eigenvalues --    0.99572   1.00073   1.00535   1.01307   1.01784
 Alpha virt. eigenvalues --    1.02234   1.02393   1.02971   1.03201   1.03881
 Alpha virt. eigenvalues --    1.03941   1.04791   1.05174   1.06125   1.06841
 Alpha virt. eigenvalues --    1.07304   1.08013   1.08829   1.09199   1.09234
 Alpha virt. eigenvalues --    1.10031   1.10300   1.10985   1.11415   1.11542
 Alpha virt. eigenvalues --    1.12250   1.12498   1.12736   1.13405   1.13717
 Alpha virt. eigenvalues --    1.14067   1.14286   1.14708   1.15386   1.15985
 Alpha virt. eigenvalues --    1.16242   1.16897   1.17270   1.17605   1.18318
 Alpha virt. eigenvalues --    1.18504   1.19102   1.19263   1.19343   1.19714
 Alpha virt. eigenvalues --    1.20572   1.20895   1.21005   1.21349   1.21955
 Alpha virt. eigenvalues --    1.22609   1.22814   1.23143   1.23348   1.23618
 Alpha virt. eigenvalues --    1.23901   1.24355   1.25016   1.25811   1.26149
 Alpha virt. eigenvalues --    1.26606   1.27095   1.27529   1.28062   1.28306
 Alpha virt. eigenvalues --    1.28675   1.28824   1.29123   1.29357   1.29790
 Alpha virt. eigenvalues --    1.30283   1.30708   1.30928   1.31294   1.31826
 Alpha virt. eigenvalues --    1.32306   1.33119   1.33714   1.34167   1.34723
 Alpha virt. eigenvalues --    1.35462   1.35747   1.36611   1.36719   1.37215
 Alpha virt. eigenvalues --    1.37614   1.37936   1.38359   1.38825   1.39452
 Alpha virt. eigenvalues --    1.40063   1.40266   1.40867   1.41384   1.42248
 Alpha virt. eigenvalues --    1.43004   1.43828   1.44026   1.44368   1.44746
 Alpha virt. eigenvalues --    1.45607   1.46001   1.46603   1.47206   1.47575
 Alpha virt. eigenvalues --    1.49121   1.49275   1.50066   1.50286   1.50729
 Alpha virt. eigenvalues --    1.50870   1.51945   1.52671   1.53138   1.53718
 Alpha virt. eigenvalues --    1.53844   1.54420   1.55237   1.55780   1.56202
 Alpha virt. eigenvalues --    1.56500   1.57853   1.58072   1.58857   1.59744
 Alpha virt. eigenvalues --    1.59941   1.60927   1.61212   1.61983   1.62153
 Alpha virt. eigenvalues --    1.62422   1.63618   1.63740   1.63913   1.64330
 Alpha virt. eigenvalues --    1.64718   1.65191   1.65746   1.66724   1.66950
 Alpha virt. eigenvalues --    1.67558   1.68542   1.69024   1.69521   1.70184
 Alpha virt. eigenvalues --    1.70460   1.70725   1.71536   1.71896   1.72211
 Alpha virt. eigenvalues --    1.72469   1.72799   1.73342   1.73400   1.74233
 Alpha virt. eigenvalues --    1.74980   1.75021   1.75273   1.75705   1.76214
 Alpha virt. eigenvalues --    1.76815   1.77059   1.77673   1.78067   1.78364
 Alpha virt. eigenvalues --    1.78942   1.79590   1.79949   1.80752   1.80998
 Alpha virt. eigenvalues --    1.81464   1.82621   1.82758   1.83588   1.84323
 Alpha virt. eigenvalues --    1.84714   1.84917   1.85032   1.85458   1.86200
 Alpha virt. eigenvalues --    1.86521   1.86710   1.87006   1.87431   1.87840
 Alpha virt. eigenvalues --    1.89092   1.89786   1.90682   1.91240   1.91302
 Alpha virt. eigenvalues --    1.91474   1.91760   1.92528   1.92876   1.93049
 Alpha virt. eigenvalues --    1.93307   1.94176   1.94440   1.94771   1.95229
 Alpha virt. eigenvalues --    1.95574   1.96173   1.96441   1.96589   1.97952
 Alpha virt. eigenvalues --    1.98322   1.99115   1.99645   1.99990   2.00461
 Alpha virt. eigenvalues --    2.00845   2.01566   2.02481   2.03471   2.04244
 Alpha virt. eigenvalues --    2.04625   2.04814   2.05470   2.05759   2.06251
 Alpha virt. eigenvalues --    2.06470   2.07526   2.08813   2.09132   2.09738
 Alpha virt. eigenvalues --    2.10812   2.11674   2.11752   2.12603   2.13075
 Alpha virt. eigenvalues --    2.14410   2.15848   2.16288   2.16368   2.17104
 Alpha virt. eigenvalues --    2.18155   2.20119   2.20358   2.21850   2.22198
 Alpha virt. eigenvalues --    2.22661   2.22928   2.23908   2.24288   2.24665
 Alpha virt. eigenvalues --    2.24669   2.25095   2.25338   2.26040   2.26356
 Alpha virt. eigenvalues --    2.27759   2.28772   2.29322   2.29544   2.30342
 Alpha virt. eigenvalues --    2.31870   2.32373   2.33413   2.34775   2.35244
 Alpha virt. eigenvalues --    2.36930   2.38201   2.39931   2.41390   2.41740
 Alpha virt. eigenvalues --    2.42283   2.44940   2.46240   2.47957   2.50127
 Alpha virt. eigenvalues --    2.51349   2.53605   2.55226   2.55706   2.56973
 Alpha virt. eigenvalues --    2.58023   2.58851   2.59585   2.60205   2.61089
 Alpha virt. eigenvalues --    2.61354   2.61952   2.62077   2.62701   2.62978
 Alpha virt. eigenvalues --    2.63300   2.63474   2.63596   2.64537   2.65091
 Alpha virt. eigenvalues --    2.65713   2.66099   2.66248   2.66580   2.67077
 Alpha virt. eigenvalues --    2.68045   2.68283   2.68392   2.68920   2.69029
 Alpha virt. eigenvalues --    2.69708   2.70114   2.72009   2.72225   2.73430
 Alpha virt. eigenvalues --    2.73598   2.74402   2.74910   2.75872   2.76802
 Alpha virt. eigenvalues --    2.78294   2.78676   2.79407   2.79448   2.79669
 Alpha virt. eigenvalues --    2.79961   2.80303   2.80428   2.81171   2.81852
 Alpha virt. eigenvalues --    2.82692   2.82925   2.83626   2.84477   2.85162
 Alpha virt. eigenvalues --    2.85482   2.86377   2.86554   2.87314   2.88702
 Alpha virt. eigenvalues --    2.89866   2.90267   2.91243   2.92324   2.92888
 Alpha virt. eigenvalues --    2.93333   2.93781   2.95647   2.95859   2.96343
 Alpha virt. eigenvalues --    2.96895   2.97443   2.98310   2.98370   2.98790
 Alpha virt. eigenvalues --    2.98883   2.98979   2.99278   2.99959   3.00515
 Alpha virt. eigenvalues --    3.00628   3.00780   3.01618   3.02523   3.02818
 Alpha virt. eigenvalues --    3.03163   3.03243   3.03285   3.03345   3.03457
 Alpha virt. eigenvalues --    3.03601   3.03676   3.03733   3.03821   3.03878
 Alpha virt. eigenvalues --    3.04099   3.04252   3.04333   3.04779   3.05436
 Alpha virt. eigenvalues --    3.05737   3.06336   3.06903   3.07616   3.09701
 Alpha virt. eigenvalues --    3.11531   3.14230   3.14768   3.15612   3.15970
 Alpha virt. eigenvalues --    3.15997   3.16361   3.16787   3.17016   3.19372
 Alpha virt. eigenvalues --    3.19953   3.20654   3.20811   3.22056   3.22540
 Alpha virt. eigenvalues --    3.23738   3.33992   3.35167   3.35993   3.37641
 Alpha virt. eigenvalues --    3.38079   3.38344   3.38697   3.38895   3.39224
 Alpha virt. eigenvalues --    3.39858   3.40264   3.42082   3.44382   3.49053
 Alpha virt. eigenvalues --    3.50305   3.51675   3.52248   3.52357   3.52651
 Alpha virt. eigenvalues --    3.53442   3.53558   3.54223   3.54404   3.59714
 Alpha virt. eigenvalues --    3.62596   3.67700   3.67829   3.68259   3.69821
 Alpha virt. eigenvalues --    3.80948   3.81627   3.82687   3.83170   3.83637
 Alpha virt. eigenvalues --    3.84181
          Condensed to atoms (all electrons):
 Mulliken charges:
               1
     1  C    0.029214
     2  C    0.068625
     3  C    0.017857
     4  C    0.071489
     5  C    0.010403
     6  C    0.062680
     7  C   -0.270983
     8  C    0.309356
     9  C    0.280188
    10  H    0.037005
    11  H    0.037920
    12  H    0.053761
    13  H    0.037119
    14  H    0.037753
    15  O   -0.310034
    16  O   -0.306073
    17  O   -0.294826
    18  O   -0.285099
    19  C    0.174070
    20  C    0.157696
    21  H    0.056361
    22  H    0.051481
    23  H    0.040029
    24  H    0.049098
    25  H    0.071968
    26  H    0.046629
    27  O   -0.433885
    28  O   -0.444968
    29  O   -0.421755
    30  S    0.885643
    31  S    0.869750
    32  S    0.864902
    33  O   -0.442226
    34  O   -0.408141
    35  O   -0.431134
    36  O   -0.399489
    37  O   -0.436174
    38  O   -0.418167
    39  C    0.432627
    40  C    0.436198
    41  C    0.425510
    42  F   -0.121142
    43  F   -0.116216
    44  F   -0.127708
    45  F   -0.106364
    46  F   -0.123592
    47  F   -0.123909
    48  F   -0.125044
    49  F   -0.115448
    50  F   -0.123944
    51  C    0.019164
    52  H    0.061322
    53  C   -0.312071
    54  C   -0.132477
    55  C   -0.143853
    56  C    0.038148
    57  C    0.043912
    58  C    0.105690
    59  H    0.073764
    60  H    0.066402
    61  H    0.040096
    62  N    0.050905
    63  N    0.041501
    64  N   -0.013965
    65  N   -0.041858
    66  Sc   0.242860
    67  C    0.279819
    68  H    0.072536
    69  H    0.081759
    70  C    0.120190
    71  H    0.077148
 Sum of Mulliken charges =  -0.00000
 Mulliken charges with hydrogens summed into heavy atoms:
               1
     1  C    0.029214
     2  C    0.105629
     3  C    0.055777
     4  C    0.125249
     5  C    0.047521
     6  C    0.100433
     7  C   -0.270983
     8  C    0.309356
     9  C    0.280188
    15  O   -0.310034
    16  O   -0.306073
    17  O   -0.294826
    18  O   -0.285099
    19  C    0.321941
    20  C    0.325391
    27  O   -0.433885
    28  O   -0.444968
    29  O   -0.421755
    30  S    0.885643
    31  S    0.869750
    32  S    0.864902
    33  O   -0.442226
    34  O   -0.408141
    35  O   -0.431134
    36  O   -0.399489
    37  O   -0.436174
    38  O   -0.418167
    39  C    0.432627
    40  C    0.436198
    41  C    0.425510
    42  F   -0.121142
    43  F   -0.116216
    44  F   -0.127708
    45  F   -0.106364
    46  F   -0.123592
    47  F   -0.123909
    48  F   -0.125044
    49  F   -0.115448
    50  F   -0.123944
    51  C    0.080486
    53  C   -0.312071
    54  C   -0.132477
    55  C   -0.143853
    56  C    0.111912
    57  C    0.110314
    58  C    0.145786
    62  N    0.050905
    63  N    0.041501
    64  N   -0.013965
    65  N   -0.041858
    66  Sc   0.242860
    67  C    0.434114
    70  C    0.197338
 Electronic spatial extent (au):  <R**2>=          32625.9400
 Charge=             -0.0000 electrons
 Dipole moment (field-independent basis, Debye):
    X=             19.2949    Y=             -1.8280    Z=              5.9899  Tot=             20.2858
 Quadrupole moment (field-independent basis, Debye-Ang):
   XX=           -287.8096   YY=           -316.2103   ZZ=           -348.7717
   XY=             67.4928   XZ=             24.5796   YZ=              3.5928
 Traceless Quadrupole moment (field-independent basis, Debye-Ang):
   XX=             29.7876   YY=              1.3869   ZZ=            -31.1745
   XY=             67.4928   XZ=             24.5796   YZ=              3.5928
 Octapole moment (field-independent basis, Debye-Ang**2):
  XXX=            304.4355  YYY=            -21.2208  ZZZ=             96.2365  XYY=            -18.8315
  XXY=            406.2708  XXZ=            263.5240  XZZ=            -29.5598  YZZ=             47.4490
  YYZ=             84.1449  XYZ=            -33.3561
 Hexadecapole moment (field-independent basis, Debye-Ang**3):
 XXXX=         -19862.9331 YYYY=         -10143.4292 ZZZZ=          -6773.9430 XXXY=           2932.6819
 XXXZ=           1185.3220 YYYX=            778.1638 YYYZ=             -4.1128 ZZZX=            426.4526
 ZZZY=           -335.5286 XXYY=          -5860.7041 XXZZ=          -5108.7164 YYZZ=          -2953.0635
 XXYZ=           -141.2500 YYXZ=              0.1257 ZZXY=            423.7667
 N-N= 1.057574026959D+04 E-N=-3.278282300065D+04  KE= 4.900336279372D+03
 No NMR shielding tensors so no spin-rotation constants.
 Leave Link  601 at Mon Apr 28 17:20:17 2025, MaxMem= 12348030976 cpu:              16.1 elap:               0.8
 (Enter /sysapps/ubuntu-applications/gaussian-new/avx/g16/l9999.exe)
 1\1\GINC-ACIDSCN019\FOpt\RMN15\Gen\C23H18F9N4O13S3Sc1\SELHAJJ1\28-Apr-
 2025\0\\#P MN15/gen scf=(maxcyc=500) opt=(modred) scrf=(smd,solvent=Di
 ChloroEthane)\\Opt\\0,1\C,5.417852729,1.0321368381,0.8411452416\C,6.13
 07861386,0.3142592626,1.844378518\C,7.3201983474,0.8149356394,2.344219
 9087\C,7.8113570758,2.0324747367,1.8512991615\C,7.1227866255,2.7593003
 582,0.8650600718\C,5.930987429,2.2714111337,0.3619251693\C,1.917120191
 6,0.7495155989,-0.4458918227\C,1.399592092,1.2654093056,0.7648502544\C
 ,1.0448812318,0.1867503485,-1.4023760745\H,5.728386408,-0.6400640497,2
 .191569666\H,7.8740328174,0.2699260864,3.1097838335\H,8.7504342382,2.4
 284126898,2.2454843409\H,7.5264018995,3.7070040008,0.5059444231\H,5.38
 21575078,2.8376274149,-0.3921766043\O,-0.1832604989,-0.0530057072,-1.2
 27236621\O,0.187651104,1.3975947703,1.0824199233\O,2.3245213059,1.6713
 045265,1.631938177\O,1.5899567248,-0.127897859,-2.5739038945\C,1.89085
 34361,2.1793596318,2.8919501477\C,0.7233318958,-0.4697809509,-3.653590
 7509\H,2.7983419292,2.3588265875,3.4788513154\H,1.2475704968,1.4472276
 034,3.3994332549\H,1.3371115451,3.1174977906,2.7590377874\H,1.37252430
 9,-0.797740557,-4.4736601111\H,0.1433444972,0.412063102,-3.9626670784\
 H,0.0257421274,-1.2699205979,-3.3715992322\O,-2.8306133969,-1.05753591
 71,-0.3435873783\O,-2.4373138329,0.5151483453,2.0878675397\O,-0.796553
 1668,2.5925571563,-1.2291358992\S,-1.6199478516,3.5557464498,-0.457270
 1504\S,-3.6338974472,-0.4185588291,-1.4305811946\S,-1.7130775313,-0.71
 04305206,2.5596931905\O,-2.3674111847,2.7337937795,0.5493231347\O,-2.3
 702708667,4.5547782401,-1.1765483468\O,-3.0295598852,0.9369955924,-1.5
 932852269\O,-3.910472769,-1.1927929267,-2.6122475016\O,-0.8022261321,-
 1.093308094,1.4542007159\O,-1.1758271753,-0.6746756664,3.8991822477\C,
 -3.0393806339,-2.0288156678,2.5897229632\C,-5.2501443459,-0.0719790918
 ,-0.6239290726\C,-0.393262565,4.509361353,0.5850417328\F,-2.6707561273
 ,-3.0506812751,1.8370660262\F,-4.1817421592,-1.5435316944,2.1457421265
 \F,-3.1982498297,-2.4443075784,3.8333508145\F,-5.0405882478,0.68244164
 78,0.440167\F,-5.8150441145,-1.2082398784,-0.2621447491\F,-6.035719494
 3,0.5648378436,-1.4717405671\F,0.8414410544,4.118635341,0.3080684952\F
 ,-0.635018088,4.3076052753,1.8672058854\F,-0.5065513666,5.7963530005,0
 .316852104\C,4.2309881064,0.4634120922,0.351526562\H,3.9100483698,-0.4
 799048496,0.8144560322\C,3.9343253726,-2.3925060541,-1.7756570902\C,5.
 0625328608,-2.2897800319,-0.9426713794\C,4.0054588559,-2.1531209343,-3
 .1603620626\C,0.4310425548,-3.4371409699,-1.3790024283\C,1.4837576897,
 -2.9903730354,0.7004451903\C,0.3299411993,-3.3670490216,0.0006994694\H
 ,-0.4101421913,-3.7240468174,-2.0113415854\H,1.4859069472,-2.906509556
 3,1.7889787894\H,-0.5987616326,-3.5674276242,0.5308170366\N,6.01558766
 42,-2.1843919943,-0.2759912293\N,4.0355504395,-1.9469696872,-4.3095450
 959\N,2.6981830617,-2.7563055023,-1.2095095866\N,2.6299195556,-2.68796
 08413,0.1152745056\Sc,-1.5303634124,0.7492168127,0.09787579\C,3.381310
 326,0.9497632324,-0.7376094394\H,3.6352089105,1.9743042925,-1.04826457
 71\H,3.6523634418,0.2971946942,-1.5952078306\C,1.6490212741,-3.1365733
 608,-1.9737512529\H,1.8190556797,-3.1870704625,-3.0495436226\\Version=
 ES64L-G16RevA.03\State=1-A\HF=-4931.8986287\RMSD=4.811e-09\RMSF=3.070e
 -04\Dipole=7.6374875,-1.0259304,2.0768217\Quadrupole=20.3805124,1.0025
 728,-21.3830852,45.5852757,28.2196873,7.8888072\PG=C01 [X(C23H18F9N4O1
 3S3Sc1)]\\@


 TRUST EVERYONE, BUT CUT THE CARDS.
 Job cpu time:       3 days  4 hours 57 minutes  9.3 seconds.
 Elapsed time:       0 days  3 hours 16 minutes  8.5 seconds.
 File lengths (MBytes):  RWF=    984 Int=      0 D2E=      0 Chk=     63 Scr=      1
 Normal termination of Gaussian 16 at Mon Apr 28 17:20:19 2025.
