 Entering Gaussian System, Link 0=/sysapps/ubuntu-applications/gaussian-new/avx/g16//g16
 Input=preplx.in
 Output=preplx.log
 Initial command:
 /sysapps/ubuntu-applications/gaussian-new/avx/g16/l1.exe "/data/temp-scratch/sgozem/277238/Gau-2726382.inp" -scrdir="/data/temp-scratch/sgozem/277238/"
 Entering Link 1 = /sysapps/ubuntu-applications/gaussian-new/avx/g16/l1.exe PID=   2726384.
  
 Copyright (c) 1988,1990,1992,1993,1995,1998,2003,2009,2016,
            Gaussian, Inc.  All Rights Reserved.
  
 This is part of the Gaussian(R) 16 program.  It is based on
 the Gaussian(R) 09 system (copyright 2009, Gaussian, Inc.),
 the Gaussian(R) 03 system (copyright 2003, Gaussian, Inc.),
 the Gaussian(R) 98 system (copyright 1998, Gaussian, Inc.),
 the Gaussian(R) 94 system (copyright 1995, Gaussian, Inc.),
 the Gaussian 92(TM) system (copyright 1992, Gaussian, Inc.),
 the Gaussian 90(TM) system (copyright 1990, Gaussian, Inc.),
 the Gaussian 88(TM) system (copyright 1988, Gaussian, Inc.),
 the Gaussian 86(TM) system (copyright 1986, Carnegie Mellon
 University), and the Gaussian 82(TM) system (copyright 1983,
 Carnegie Mellon University). Gaussian is a federally registered
 trademark of Gaussian, Inc.
  
 This software contains proprietary and confidential information,
 including trade secrets, belonging to Gaussian, Inc.
  
 This software is provided under written license and may be
 used, copied, transmitted, or stored only in accord with that
 written license.
  
 The following legend is applicable only to US Government
 contracts under FAR:
  
                    RESTRICTED RIGHTS LEGEND
  
 Use, reproduction and disclosure by the US Government is
 subject to restrictions as set forth in subparagraphs (a)
 and (c) of the Commercial Computer Software - Restricted
 Rights clause in FAR 52.227-19.
  
 Gaussian, Inc.
 340 Quinnipiac St., Bldg. 40, Wallingford CT 06492
  
  
 ---------------------------------------------------------------
 Warning -- This program may not be used in any manner that
 competes with the business of Gaussian, Inc. or will provide
 assistance to any competitor of Gaussian, Inc.  The licensee
 of this program is prohibited from giving any competitor of
 Gaussian, Inc. access to this program.  By using this program,
 the user acknowledges that Gaussian, Inc. is engaged in the
 business of creating and licensing software in the field of
 computational chemistry and represents and warrants to the
 licensee that it is not a competitor of Gaussian, Inc. and that
 it will not use this program in any manner prohibited above.
 ---------------------------------------------------------------
  

 Cite this work as:
 Gaussian 16, Revision A.03,
 M. J. Frisch, G. W. Trucks, H. B. Schlegel, G. E. Scuseria, 
 M. A. Robb, J. R. Cheeseman, G. Scalmani, V. Barone, 
 G. A. Petersson, H. Nakatsuji, X. Li, M. Caricato, A. V. Marenich, 
 J. Bloino, B. G. Janesko, R. Gomperts, B. Mennucci, H. P. Hratchian, 
 J. V. Ortiz, A. F. Izmaylov, J. L. Sonnenberg, D. Williams-Young, 
 F. Ding, F. Lipparini, F. Egidi, J. Goings, B. Peng, A. Petrone, 
 T. Henderson, D. Ranasinghe, V. G. Zakrzewski, J. Gao, N. Rega, 
 G. Zheng, W. Liang, M. Hada, M. Ehara, K. Toyota, R. Fukuda, 
 J. Hasegawa, M. Ishida, T. Nakajima, Y. Honda, O. Kitao, H. Nakai, 
 T. Vreven, K. Throssell, J. A. Montgomery, Jr., J. E. Peralta, 
 F. Ogliaro, M. J. Bearpark, J. J. Heyd, E. N. Brothers, K. N. Kudin, 
 V. N. Staroverov, T. A. Keith, R. Kobayashi, J. Normand, 
 K. Raghavachari, A. P. Rendell, J. C. Burant, S. S. Iyengar, 
 J. Tomasi, M. Cossi, J. M. Millam, M. Klene, C. Adamo, R. Cammi, 
 J. W. Ochterski, R. L. Martin, K. Morokuma, O. Farkas, 
 J. B. Foresman, and D. J. Fox, Gaussian, Inc., Wallingford CT, 2016.
 
 ******************************************
 Gaussian 16:  ES64L-G16RevA.03 25-Dec-2016
                21-Apr-2025 
 ******************************************
 %chk=preplx.chk
 %mem=616Gb
 %nprocshared=24
 Will use up to   24 processors via shared memory.
 ----------------------------------------------------------------------
 #P UMN15/genecp scf=(maxcyc=500) opt scrf=(smd,solvent=DiChloroEthane)
 ----------------------------------------------------------------------
 1/18=20,19=15,26=3,38=1/1,3;
 2/9=110,12=2,17=6,18=5,40=1/2;
 3/5=7,11=2,16=1,17=8,25=1,30=1,70=32201,71=1,72=10,74=-73,116=2/1,2,3;
 4//1;
 5/5=2,7=500,38=5,53=10/2;
 6/7=2,8=2,9=2,10=2,28=1/1;
 7//1,2,3,16;
 1/18=20,19=15,26=3/3(2);
 2/9=110/2;
 99//99;
 2/9=110/2;
 3/5=7,6=1,11=2,16=1,17=8,25=1,30=1,70=32205,71=1,72=10,74=-73,82=7,116=2/1,2,3;
 4/5=5,16=3,69=1/1;
 5/5=2,7=500,38=5,53=10/2;
 7//1,2,3,16;
 1/18=20,19=15,26=3/3(-5);
 2/9=110/2;
 6/7=2,8=2,9=2,10=2,19=2,28=1/1;
 99/9=1/99;
 Leave Link    1 at Mon Apr 21 16:06:14 2025, MaxMem= 82678120448 cpu:              11.1 elap:               0.5
 (Enter /sysapps/ubuntu-applications/gaussian-new/avx/g16/l101.exe)
 ---
 Opt
 ---
 Symbolic Z-matrix:
 Charge =  0 Multiplicity = 1
 C                     5.63562  -1.07802   0.22687 
 C                     6.7941   -0.84959  -0.54285 
 C                     8.01214  -1.36877  -0.11649 
 C                     8.07462  -2.09706   1.07561 
 C                     6.92588  -2.3147    1.85193 
 C                     5.70327  -1.81131   1.43324 
 C                     2.00163  -0.52975   0.2599 
 C                     1.43416   0.05122  -0.90079 
 C                     1.23399  -0.82802   1.42737 
 H                     6.72267  -0.26902  -1.46521 
 H                     8.91523  -1.20295  -0.70617 
 H                     9.03324  -2.49937   1.41092 
 H                     6.99563  -2.87808   2.78403 
 H                     4.79488  -1.95786   2.02265 
 O                     0.03745  -0.47861   1.58479 
 O                     0.20561   0.2209   -1.0714 
 O                     2.28563   0.43492  -1.84157 
 O                     1.87287  -1.46804   2.37588 
 C                     1.73559   0.93584  -3.06723 
 C                     1.21237  -1.63338   3.63086 
 H                     2.58326   1.31365  -3.64859 
 H                     1.01391   1.73862  -2.86485 
 H                     1.23239   0.12738  -3.61288 
 H                     1.91091  -2.17921   4.27303 
 H                     0.28395  -2.20675   3.50605 
 H                     0.98547  -0.6527    4.07106 
 O                    -3.00848   0.30718   1.83845 
 O                    -2.60482   1.1299   -1.34373 
 O                    -0.53865  -2.49863  -0.21991 
 S                    -1.39644  -2.88284  -1.37633 
 S                    -3.7322   -0.99164   2.00531 
 S                    -2.05074   2.40739  -0.79725 
 O                    -2.20053  -1.66398  -1.70689 
 O                    -2.09189  -4.14306  -1.32157 
 O                    -2.99425  -1.95635   1.13489 
 O                    -4.09291  -1.40554   3.33365 
 O                    -1.31826   2.0486    0.44639 
 O                    -1.39011   3.29273  -1.73069 
 C                    -3.53794   3.32676  -0.22224 
 C                    -5.28773  -0.69385   1.07093 
 C                    -0.22357  -3.0519   -2.79044 
 F                    -3.14741   4.32952   0.54428 
 F                    -4.32868   2.52415   0.46332 
 F                    -4.18621   3.79739  -1.27116 
 F                    -4.95631  -0.36571  -0.17103 
 F                    -5.95832   0.29631   1.62496 
 F                    -6.02541  -1.78515   1.05945 
 F                     0.70077  -2.10389  -2.73963 
 F                    -0.88954  -2.95136  -3.92457 
 F                     0.36311  -4.23147  -2.72209 
 C                     4.39183  -0.53077  -0.22625 
 H                     4.33695   0.10239  -1.11769 
 C                     4.42904   1.93128   0.93349 
 C                     5.79533   2.10304   0.61732 
 C                     4.0315    1.35971   2.15931 
 C                     1.35392   3.61981  -0.20222 
 C                     3.12048   3.77346  -1.78362 
 C                     1.80112   4.08283  -1.43172 
 H                     0.34573   3.81046   0.16019 
 H                     3.55359   4.09579  -2.73318 
 H                     1.15687   4.65224  -2.10154 
 N                     6.93151   2.20535   0.37697 
 N                     3.69881   0.84218   3.15102 
 N                     3.48458   2.65106   0.16143 
 N                     3.93331   3.06958  -1.01266 
 C                     2.22729   2.89495   0.59635 
 H                     1.96055   2.51053   1.58233 
 Lu                   -1.58463  -0.35299   0.11101 
 O                     3.32336  -0.90572   0.36491 
 
 Add virtual bond connecting atoms H59        and O37        Dist= 4.61D+00.
 ITRead=  0  0  0  0  0  0  0  0  0  0  0  0  0  0  0  0  0  0  0  0
 ITRead=  0  0  0  0  0  0  0  0  0  0  0  0  0  0  0  0  0  0  0  0
 ITRead=  0  0  0  0  0  0  0  0  0  0  0  0  0  0  0  0  0  0  0  0
 ITRead=  0  0  0  0  0  0  0  0  0
 MicOpt= -1 -1 -1 -1 -1 -1 -1 -1 -1 -1 -1 -1 -1 -1 -1 -1 -1 -1 -1 -1
 MicOpt= -1 -1 -1 -1 -1 -1 -1 -1 -1 -1 -1 -1 -1 -1 -1 -1 -1 -1 -1 -1
 MicOpt= -1 -1 -1 -1 -1 -1 -1 -1 -1 -1 -1 -1 -1 -1 -1 -1 -1 -1 -1 -1
 MicOpt= -1 -1 -1 -1 -1 -1 -1 -1 -1
 NAtoms=     69 NQM=       69 NQMF=       0 NMMI=      0 NMMIF=      0
                NMic=       0 NMicF=      0.
                    Isotopes and Nuclear Properties:
 (Nuclear quadrupole moments (NQMom) in fm**2, nuclear magnetic moments (NMagM)
  in nuclear magnetons)

  Atom         1           2           3           4           5           6           7           8           9          10
 IAtWgt=          12          12          12          12          12          12          12          12          12           1
 AtmWgt=  12.0000000  12.0000000  12.0000000  12.0000000  12.0000000  12.0000000  12.0000000  12.0000000  12.0000000   1.0078250
 NucSpn=           0           0           0           0           0           0           0           0           0           1
 AtZEff=  -0.0000000  -0.0000000  -0.0000000  -0.0000000  -0.0000000  -0.0000000  -0.0000000  -0.0000000  -0.0000000  -0.0000000
 NQMom=    0.0000000   0.0000000   0.0000000   0.0000000   0.0000000   0.0000000   0.0000000   0.0000000   0.0000000   0.0000000
 NMagM=    0.0000000   0.0000000   0.0000000   0.0000000   0.0000000   0.0000000   0.0000000   0.0000000   0.0000000   2.7928460
 AtZNuc=   6.0000000   6.0000000   6.0000000   6.0000000   6.0000000   6.0000000   6.0000000   6.0000000   6.0000000   1.0000000

  Atom        11          12          13          14          15          16          17          18          19          20
 IAtWgt=           1           1           1           1          16          16          16          16          12          12
 AtmWgt=   1.0078250   1.0078250   1.0078250   1.0078250  15.9949146  15.9949146  15.9949146  15.9949146  12.0000000  12.0000000
 NucSpn=           1           1           1           1           0           0           0           0           0           0
 AtZEff=  -0.0000000  -0.0000000  -0.0000000  -0.0000000  -0.0000000  -0.0000000  -0.0000000  -0.0000000  -0.0000000  -0.0000000
 NQMom=    0.0000000   0.0000000   0.0000000   0.0000000   0.0000000   0.0000000   0.0000000   0.0000000   0.0000000   0.0000000
 NMagM=    2.7928460   2.7928460   2.7928460   2.7928460   0.0000000   0.0000000   0.0000000   0.0000000   0.0000000   0.0000000
 AtZNuc=   1.0000000   1.0000000   1.0000000   1.0000000   8.0000000   8.0000000   8.0000000   8.0000000   6.0000000   6.0000000

  Atom        21          22          23          24          25          26          27          28          29          30
 IAtWgt=           1           1           1           1           1           1          16          16          16          32
 AtmWgt=   1.0078250   1.0078250   1.0078250   1.0078250   1.0078250   1.0078250  15.9949146  15.9949146  15.9949146  31.9720718
 NucSpn=           1           1           1           1           1           1           0           0           0           0
 AtZEff=  -0.0000000  -0.0000000  -0.0000000  -0.0000000  -0.0000000  -0.0000000  -0.0000000  -0.0000000  -0.0000000  -0.0000000
 NQMom=    0.0000000   0.0000000   0.0000000   0.0000000   0.0000000   0.0000000   0.0000000   0.0000000   0.0000000   0.0000000
 NMagM=    2.7928460   2.7928460   2.7928460   2.7928460   2.7928460   2.7928460   0.0000000   0.0000000   0.0000000   0.0000000
 AtZNuc=   1.0000000   1.0000000   1.0000000   1.0000000   1.0000000   1.0000000   8.0000000   8.0000000   8.0000000  16.0000000

  Atom        31          32          33          34          35          36          37          38          39          40
 IAtWgt=          32          32          16          16          16          16          16          16          12          12
 AtmWgt=  31.9720718  31.9720718  15.9949146  15.9949146  15.9949146  15.9949146  15.9949146  15.9949146  12.0000000  12.0000000
 NucSpn=           0           0           0           0           0           0           0           0           0           0
 AtZEff=  -0.0000000  -0.0000000  -0.0000000  -0.0000000  -0.0000000  -0.0000000  -0.0000000  -0.0000000  -0.0000000  -0.0000000
 NQMom=    0.0000000   0.0000000   0.0000000   0.0000000   0.0000000   0.0000000   0.0000000   0.0000000   0.0000000   0.0000000
 NMagM=    0.0000000   0.0000000   0.0000000   0.0000000   0.0000000   0.0000000   0.0000000   0.0000000   0.0000000   0.0000000
 AtZNuc=  16.0000000  16.0000000   8.0000000   8.0000000   8.0000000   8.0000000   8.0000000   8.0000000   6.0000000   6.0000000

  Atom        41          42          43          44          45          46          47          48          49          50
 IAtWgt=          12          19          19          19          19          19          19          19          19          19
 AtmWgt=  12.0000000  18.9984032  18.9984032  18.9984032  18.9984032  18.9984032  18.9984032  18.9984032  18.9984032  18.9984032
 NucSpn=           0           1           1           1           1           1           1           1           1           1
 AtZEff=  -0.0000000  -0.0000000  -0.0000000  -0.0000000  -0.0000000  -0.0000000  -0.0000000  -0.0000000  -0.0000000  -0.0000000
 NQMom=    0.0000000   0.0000000   0.0000000   0.0000000   0.0000000   0.0000000   0.0000000   0.0000000   0.0000000   0.0000000
 NMagM=    0.0000000   2.6288670   2.6288670   2.6288670   2.6288670   2.6288670   2.6288670   2.6288670   2.6288670   2.6288670
 AtZNuc=   6.0000000   9.0000000   9.0000000   9.0000000   9.0000000   9.0000000   9.0000000   9.0000000   9.0000000   9.0000000

  Atom        51          52          53          54          55          56          57          58          59          60
 IAtWgt=          12           1          12          12          12          12          12          12           1           1
 AtmWgt=  12.0000000   1.0078250  12.0000000  12.0000000  12.0000000  12.0000000  12.0000000  12.0000000   1.0078250   1.0078250
 NucSpn=           0           1           0           0           0           0           0           0           1           1
 AtZEff=  -0.0000000  -0.0000000  -0.0000000  -0.0000000  -0.0000000  -0.0000000  -0.0000000  -0.0000000  -0.0000000  -0.0000000
 NQMom=    0.0000000   0.0000000   0.0000000   0.0000000   0.0000000   0.0000000   0.0000000   0.0000000   0.0000000   0.0000000
 NMagM=    0.0000000   2.7928460   0.0000000   0.0000000   0.0000000   0.0000000   0.0000000   0.0000000   2.7928460   2.7928460
 AtZNuc=   6.0000000   1.0000000   6.0000000   6.0000000   6.0000000   6.0000000   6.0000000   6.0000000   1.0000000   1.0000000

  Atom        61          62          63          64          65          66          67          68          69
 IAtWgt=           1          14          14          14          14          12           1         175          16
 AtmWgt=   1.0078250  14.0030740  14.0030740  14.0030740  14.0030740  12.0000000   1.0078250 174.9409000  15.9949146
 NucSpn=           1           2           2           2           2           0           1           7           0
 AtZEff=  -0.0000000  -0.0000000  -0.0000000  -0.0000000  -0.0000000  -0.0000000  -0.0000000  -0.0000000  -0.0000000
 NQMom=    0.0000000   2.0440000   2.0440000   2.0440000   2.0440000   0.0000000   0.0000000 349.0000000   0.0000000
 NMagM=    2.7928460   0.4037610   0.4037610   0.4037610   0.4037610   0.0000000   2.7928460   2.2327000   0.0000000
 AtZNuc=   1.0000000   7.0000000   7.0000000   7.0000000   7.0000000   6.0000000   1.0000000  71.0000000   8.0000000
 Leave Link  101 at Mon Apr 21 16:06:14 2025, MaxMem= 82678120448 cpu:              10.8 elap:               0.6
 (Enter /sysapps/ubuntu-applications/gaussian-new/avx/g16/l103.exe)

 GradGradGradGradGradGradGradGradGradGradGradGradGradGradGradGradGradGrad
 Berny optimization.
 Initialization pass.
                           ----------------------------
                           !    Initial Parameters    !
                           ! (Angstroms and Degrees)  !
 --------------------------                            --------------------------
 ! Name  Definition              Value          Derivative Info.                !
 --------------------------------------------------------------------------------
 ! R1    R(1,2)                  1.4095         estimate D2E/DX2                !
 ! R2    R(1,6)                  1.4134         estimate D2E/DX2                !
 ! R3    R(1,51)                 1.4324         estimate D2E/DX2                !
 ! R4    R(2,3)                  1.391          estimate D2E/DX2                !
 ! R5    R(2,10)                 1.0922         estimate D2E/DX2                !
 ! R6    R(3,4)                  1.3984         estimate D2E/DX2                !
 ! R7    R(3,11)                 1.0912         estimate D2E/DX2                !
 ! R8    R(4,5)                  1.4034         estimate D2E/DX2                !
 ! R9    R(4,12)                 1.0924         estimate D2E/DX2                !
 ! R10   R(5,6)                  1.3869         estimate D2E/DX2                !
 ! R11   R(5,13)                 1.0914         estimate D2E/DX2                !
 ! R12   R(6,14)                 1.0927         estimate D2E/DX2                !
 ! R13   R(7,8)                  1.4166         estimate D2E/DX2                !
 ! R14   R(7,9)                  1.4287         estimate D2E/DX2                !
 ! R15   R(7,69)                 1.3782         estimate D2E/DX2                !
 ! R16   R(8,16)                 1.2519         estimate D2E/DX2                !
 ! R17   R(8,17)                 1.3256         estimate D2E/DX2                !
 ! R18   R(9,15)                 1.2564         estimate D2E/DX2                !
 ! R19   R(9,18)                 1.3105         estimate D2E/DX2                !
 ! R20   R(15,68)                2.1952         estimate D2E/DX2                !
 ! R21   R(16,68)                2.2209         estimate D2E/DX2                !
 ! R22   R(17,19)                1.4338         estimate D2E/DX2                !
 ! R23   R(18,20)                1.4278         estimate D2E/DX2                !
 ! R24   R(19,21)                1.0951         estimate D2E/DX2                !
 ! R25   R(19,22)                1.0983         estimate D2E/DX2                !
 ! R26   R(19,23)                1.0975         estimate D2E/DX2                !
 ! R27   R(20,24)                1.0947         estimate D2E/DX2                !
 ! R28   R(20,25)                1.0983         estimate D2E/DX2                !
 ! R29   R(20,26)                1.0986         estimate D2E/DX2                !
 ! R30   R(27,31)                1.4962         estimate D2E/DX2                !
 ! R31   R(27,68)                2.3339         estimate D2E/DX2                !
 ! R32   R(28,32)                1.4959         estimate D2E/DX2                !
 ! R33   R(28,68)                2.3143         estimate D2E/DX2                !
 ! R34   R(29,30)                1.4902         estimate D2E/DX2                !
 ! R35   R(29,68)                2.4098         estimate D2E/DX2                !
 ! R36   R(30,33)                1.4971         estimate D2E/DX2                !
 ! R37   R(30,34)                1.4404         estimate D2E/DX2                !
 ! R38   R(30,41)                1.845          estimate D2E/DX2                !
 ! R39   R(30,68)                2.9407         estimate D2E/DX2                !
 ! R40   R(31,35)                1.4943         estimate D2E/DX2                !
 ! R41   R(31,36)                1.4373         estimate D2E/DX2                !
 ! R42   R(31,40)                1.8389         estimate D2E/DX2                !
 ! R43   R(31,68)                2.934          estimate D2E/DX2                !
 ! R44   R(32,37)                1.4872         estimate D2E/DX2                !
 ! R45   R(32,38)                1.4462         estimate D2E/DX2                !
 ! R46   R(32,39)                1.8406         estimate D2E/DX2                !
 ! R47   R(32,68)                2.9431         estimate D2E/DX2                !
 ! R48   R(33,68)                2.3244         estimate D2E/DX2                !
 ! R49   R(35,68)                2.3677         estimate D2E/DX2                !
 ! R50   R(37,59)                2.4403         estimate D2E/DX2                !
 ! R51   R(37,68)                2.4395         estimate D2E/DX2                !
 ! R52   R(39,42)                1.3212         estimate D2E/DX2                !
 ! R53   R(39,43)                1.3189         estimate D2E/DX2                !
 ! R54   R(39,44)                1.3198         estimate D2E/DX2                !
 ! R55   R(40,45)                1.3266         estimate D2E/DX2                !
 ! R56   R(40,46)                1.318          estimate D2E/DX2                !
 ! R57   R(40,47)                1.3173         estimate D2E/DX2                !
 ! R58   R(41,48)                1.325          estimate D2E/DX2                !
 ! R59   R(41,49)                1.319          estimate D2E/DX2                !
 ! R60   R(41,50)                1.3192         estimate D2E/DX2                !
 ! R61   R(51,52)                1.0948         estimate D2E/DX2                !
 ! R62   R(51,69)                1.2774         estimate D2E/DX2                !
 ! R63   R(53,54)                1.4129         estimate D2E/DX2                !
 ! R64   R(53,55)                1.4097         estimate D2E/DX2                !
 ! R65   R(53,64)                1.4164         estimate D2E/DX2                !
 ! R66   R(54,62)                1.1658         estimate D2E/DX2                !
 ! R67   R(55,63)                1.167          estimate D2E/DX2                !
 ! R68   R(56,58)                1.3878         estimate D2E/DX2                !
 ! R69   R(56,59)                1.0882         estimate D2E/DX2                !
 ! R70   R(56,66)                1.3878         estimate D2E/DX2                !
 ! R71   R(57,58)                1.4001         estimate D2E/DX2                !
 ! R72   R(57,60)                1.0923         estimate D2E/DX2                !
 ! R73   R(57,65)                1.3231         estimate D2E/DX2                !
 ! R74   R(58,61)                1.0899         estimate D2E/DX2                !
 ! R75   R(64,65)                1.3248         estimate D2E/DX2                !
 ! R76   R(64,66)                1.3526         estimate D2E/DX2                !
 ! R77   R(66,67)                1.0914         estimate D2E/DX2                !
 ! A1    A(2,1,6)              120.7203         estimate D2E/DX2                !
 ! A2    A(2,1,51)             118.6209         estimate D2E/DX2                !
 ! A3    A(6,1,51)             120.6492         estimate D2E/DX2                !
 ! A4    A(1,2,3)              119.4607         estimate D2E/DX2                !
 ! A5    A(1,2,10)             119.575          estimate D2E/DX2                !
 ! A6    A(3,2,10)             120.9642         estimate D2E/DX2                !
 ! A7    A(2,3,4)              119.6567         estimate D2E/DX2                !
 ! A8    A(2,3,11)             120.1541         estimate D2E/DX2                !
 ! A9    A(4,3,11)             120.188          estimate D2E/DX2                !
 ! A10   A(3,4,5)              121.0484         estimate D2E/DX2                !
 ! A11   A(3,4,12)             119.5185         estimate D2E/DX2                !
 ! A12   A(5,4,12)             119.4325         estimate D2E/DX2                !
 ! A13   A(4,5,6)              119.8863         estimate D2E/DX2                !
 ! A14   A(4,5,13)             120.0115         estimate D2E/DX2                !
 ! A15   A(6,5,13)             120.1021         estimate D2E/DX2                !
 ! A16   A(1,6,5)              119.2215         estimate D2E/DX2                !
 ! A17   A(1,6,14)             119.3527         estimate D2E/DX2                !
 ! A18   A(5,6,14)             121.4204         estimate D2E/DX2                !
 ! A19   A(8,7,9)              122.6778         estimate D2E/DX2                !
 ! A20   A(8,7,69)             123.9517         estimate D2E/DX2                !
 ! A21   A(9,7,69)             113.3333         estimate D2E/DX2                !
 ! A22   A(7,8,16)             124.0809         estimate D2E/DX2                !
 ! A23   A(7,8,17)             116.2883         estimate D2E/DX2                !
 ! A24   A(16,8,17)            119.6295         estimate D2E/DX2                !
 ! A25   A(7,9,15)             123.7809         estimate D2E/DX2                !
 ! A26   A(7,9,18)             115.559          estimate D2E/DX2                !
 ! A27   A(15,9,18)            120.6243         estimate D2E/DX2                !
 ! A28   A(9,15,68)            129.4572         estimate D2E/DX2                !
 ! A29   A(8,16,68)            133.1161         estimate D2E/DX2                !
 ! A30   A(8,17,19)            117.4765         estimate D2E/DX2                !
 ! A31   A(9,18,20)            117.8527         estimate D2E/DX2                !
 ! A32   A(17,19,21)           106.1046         estimate D2E/DX2                !
 ! A33   A(17,19,22)           110.4832         estimate D2E/DX2                !
 ! A34   A(17,19,23)           110.0926         estimate D2E/DX2                !
 ! A35   A(21,19,22)           110.749          estimate D2E/DX2                !
 ! A36   A(21,19,23)           110.1873         estimate D2E/DX2                !
 ! A37   A(22,19,23)           109.1944         estimate D2E/DX2                !
 ! A38   A(18,20,24)           106.1516         estimate D2E/DX2                !
 ! A39   A(18,20,25)           110.5861         estimate D2E/DX2                !
 ! A40   A(18,20,26)           110.1425         estimate D2E/DX2                !
 ! A41   A(24,20,25)           110.2293         estimate D2E/DX2                !
 ! A42   A(24,20,26)           109.9889         estimate D2E/DX2                !
 ! A43   A(25,20,26)           109.691          estimate D2E/DX2                !
 ! A44   A(29,30,33)           105.6996         estimate D2E/DX2                !
 ! A45   A(29,30,34)           118.2934         estimate D2E/DX2                !
 ! A46   A(29,30,41)           104.6248         estimate D2E/DX2                !
 ! A47   A(33,30,34)           117.4748         estimate D2E/DX2                !
 ! A48   A(33,30,41)           104.2876         estimate D2E/DX2                !
 ! A49   A(34,30,41)           104.8267         estimate D2E/DX2                !
 ! A50   A(34,30,68)           134.6314         estimate D2E/DX2                !
 ! A51   A(41,30,68)           120.4755         estimate D2E/DX2                !
 ! A52   A(27,31,35)           104.8685         estimate D2E/DX2                !
 ! A53   A(27,31,36)           118.3233         estimate D2E/DX2                !
 ! A54   A(27,31,40)           102.2354         estimate D2E/DX2                !
 ! A55   A(35,31,36)           118.4476         estimate D2E/DX2                !
 ! A56   A(35,31,40)           103.0805         estimate D2E/DX2                !
 ! A57   A(36,31,40)           107.6943         estimate D2E/DX2                !
 ! A58   A(36,31,68)           147.4647         estimate D2E/DX2                !
 ! A59   A(40,31,68)           104.8246         estimate D2E/DX2                !
 ! A60   A(28,32,37)           106.3733         estimate D2E/DX2                !
 ! A61   A(28,32,38)           117.143          estimate D2E/DX2                !
 ! A62   A(28,32,39)           103.9705         estimate D2E/DX2                !
 ! A63   A(37,32,38)           117.5433         estimate D2E/DX2                !
 ! A64   A(37,32,39)           104.9051         estimate D2E/DX2                !
 ! A65   A(38,32,39)           105.3639         estimate D2E/DX2                !
 ! A66   A(38,32,68)           134.5076         estimate D2E/DX2                !
 ! A67   A(39,32,68)           120.0037         estimate D2E/DX2                !
 ! A68   A(32,37,59)            93.6457         estimate D2E/DX2                !
 ! A69   A(59,37,68)           140.274          estimate D2E/DX2                !
 ! A70   A(32,39,42)           108.755          estimate D2E/DX2                !
 ! A71   A(32,39,43)           110.0514         estimate D2E/DX2                !
 ! A72   A(32,39,44)           109.0692         estimate D2E/DX2                !
 ! A73   A(42,39,43)           109.7261         estimate D2E/DX2                !
 ! A74   A(42,39,44)           109.611          estimate D2E/DX2                !
 ! A75   A(43,39,44)           109.6098         estimate D2E/DX2                !
 ! A76   A(31,40,45)           107.7235         estimate D2E/DX2                !
 ! A77   A(31,40,46)           109.7834         estimate D2E/DX2                !
 ! A78   A(31,40,47)           110.1198         estimate D2E/DX2                !
 ! A79   A(45,40,46)           109.5614         estimate D2E/DX2                !
 ! A80   A(45,40,47)           109.6732         estimate D2E/DX2                !
 ! A81   A(46,40,47)           109.9454         estimate D2E/DX2                !
 ! A82   A(30,41,48)           110.3969         estimate D2E/DX2                !
 ! A83   A(30,41,49)           109.3341         estimate D2E/DX2                !
 ! A84   A(30,41,50)           108.962          estimate D2E/DX2                !
 ! A85   A(48,41,49)           109.3079         estimate D2E/DX2                !
 ! A86   A(48,41,50)           109.1177         estimate D2E/DX2                !
 ! A87   A(49,41,50)           109.7089         estimate D2E/DX2                !
 ! A88   A(1,51,52)            121.4703         estimate D2E/DX2                !
 ! A89   A(1,51,69)            117.89           estimate D2E/DX2                !
 ! A90   A(52,51,69)           120.3085         estimate D2E/DX2                !
 ! A91   A(54,53,55)           121.1021         estimate D2E/DX2                !
 ! A92   A(54,53,64)           117.4564         estimate D2E/DX2                !
 ! A93   A(55,53,64)           119.4705         estimate D2E/DX2                !
 ! A94   A(58,56,59)           122.3532         estimate D2E/DX2                !
 ! A95   A(58,56,66)           118.7681         estimate D2E/DX2                !
 ! A96   A(59,56,66)           118.8774         estimate D2E/DX2                !
 ! A97   A(58,57,60)           121.7987         estimate D2E/DX2                !
 ! A98   A(58,57,65)           123.3688         estimate D2E/DX2                !
 ! A99   A(60,57,65)           114.8308         estimate D2E/DX2                !
 ! A100  A(56,58,57)           116.9102         estimate D2E/DX2                !
 ! A101  A(56,58,61)           121.8894         estimate D2E/DX2                !
 ! A102  A(57,58,61)           121.1973         estimate D2E/DX2                !
 ! A103  A(37,59,56)           122.9786         estimate D2E/DX2                !
 ! A104  A(53,64,65)           114.6938         estimate D2E/DX2                !
 ! A105  A(53,64,66)           122.4255         estimate D2E/DX2                !
 ! A106  A(65,64,66)           122.8798         estimate D2E/DX2                !
 ! A107  A(57,65,64)           118.4507         estimate D2E/DX2                !
 ! A108  A(56,66,64)           119.614          estimate D2E/DX2                !
 ! A109  A(56,66,67)           123.3692         estimate D2E/DX2                !
 ! A110  A(64,66,67)           117.0123         estimate D2E/DX2                !
 ! A111  A(15,68,16)            77.0906         estimate D2E/DX2                !
 ! A112  A(15,68,27)            88.285          estimate D2E/DX2                !
 ! A113  A(15,68,28)           141.6658         estimate D2E/DX2                !
 ! A114  A(15,68,29)            73.7706         estimate D2E/DX2                !
 ! A115  A(15,68,30)           104.0661         estimate D2E/DX2                !
 ! A116  A(15,68,31)            95.448          estimate D2E/DX2                !
 ! A117  A(15,68,32)           112.2027         estimate D2E/DX2                !
 ! A118  A(15,68,33)           133.5183         estimate D2E/DX2                !
 ! A119  A(15,68,35)            96.3638         estimate D2E/DX2                !
 ! A120  A(15,68,37)            83.3014         estimate D2E/DX2                !
 ! A121  A(16,68,27)           144.3635         estimate D2E/DX2                !
 ! A122  A(16,68,28)            81.6692         estimate D2E/DX2                !
 ! A123  A(16,68,29)            78.8774         estimate D2E/DX2                !
 ! A124  A(16,68,30)            84.3439         estimate D2E/DX2                !
 ! A125  A(16,68,32)            73.7997         estimate D2E/DX2                !
 ! A126  A(16,68,33)            86.7293         estimate D2E/DX2                !
 ! A127  A(16,68,35)           152.2656         estimate D2E/DX2                !
 ! A128  A(16,68,37)            74.3828         estimate D2E/DX2                !
 ! A129  A(27,68,28)            90.8635         estimate D2E/DX2                !
 ! A130  A(27,68,29)           128.1901         estimate D2E/DX2                !
 ! A131  A(27,68,30)           131.0503         estimate D2E/DX2                !
 ! A132  A(27,68,32)            82.328          estimate D2E/DX2                !
 ! A133  A(27,68,33)           125.2219         estimate D2E/DX2                !
 ! A134  A(27,68,35)            60.546          estimate D2E/DX2                !
 ! A135  A(27,68,37)            71.7233         estimate D2E/DX2                !
 ! A136  A(28,68,29)           132.4947         estimate D2E/DX2                !
 ! A137  A(28,68,30)           105.1601         estimate D2E/DX2                !
 ! A138  A(28,68,31)           102.8645         estimate D2E/DX2                !
 ! A139  A(28,68,33)            75.6984         estimate D2E/DX2                !
 ! A140  A(28,68,35)           116.313          estimate D2E/DX2                !
 ! A141  A(28,68,37)            60.2483         estimate D2E/DX2                !
 ! A142  A(29,68,31)           102.2719         estimate D2E/DX2                !
 ! A143  A(29,68,32)           149.4799         estimate D2E/DX2                !
 ! A144  A(29,68,33)            60.3589         estimate D2E/DX2                !
 ! A145  A(29,68,35)            73.4326         estimate D2E/DX2                !
 ! A146  A(29,68,37)           147.9972         estimate D2E/DX2                !
 ! A147  A(30,68,31)           100.7269         estimate D2E/DX2                !
 ! A148  A(30,68,32)           131.3706         estimate D2E/DX2                !
 ! A149  A(30,68,35)            70.9889         estimate D2E/DX2                !
 ! A150  A(30,68,37)           155.4329         estimate D2E/DX2                !
 ! A151  A(31,68,32)           106.7071         estimate D2E/DX2                !
 ! A152  A(31,68,33)           100.8497         estimate D2E/DX2                !
 ! A153  A(31,68,37)           101.8557         estimate D2E/DX2                !
 ! A154  A(32,68,33)           104.2218         estimate D2E/DX2                !
 ! A155  A(32,68,35)           132.3991         estimate D2E/DX2                !
 ! A156  A(33,68,35)            78.3764         estimate D2E/DX2                !
 ! A157  A(33,68,37)           133.7659         estimate D2E/DX2                !
 ! A158  A(35,68,37)           132.2375         estimate D2E/DX2                !
 ! A159  A(7,69,51)            133.3826         estimate D2E/DX2                !
 ! A160  L(53,54,62,1,-1)      178.21           estimate D2E/DX2                !
 ! A161  L(53,55,63,1,-1)      177.8317         estimate D2E/DX2                !
 ! A162  L(16,68,31,15,-1)     172.5387         estimate D2E/DX2                !
 ! A163  L(53,54,62,1,-2)      181.3343         estimate D2E/DX2                !
 ! A164  L(53,55,63,1,-2)      181.2255         estimate D2E/DX2                !
 ! A165  L(16,68,31,15,-2)     176.7913         estimate D2E/DX2                !
 ! D1    D(6,1,2,3)              0.8846         estimate D2E/DX2                !
 ! D2    D(6,1,2,10)          -179.1832         estimate D2E/DX2                !
 ! D3    D(51,1,2,3)           179.7635         estimate D2E/DX2                !
 ! D4    D(51,1,2,10)           -0.3042         estimate D2E/DX2                !
 ! D5    D(2,1,6,5)             -0.3992         estimate D2E/DX2                !
 ! D6    D(2,1,6,14)           178.7718         estimate D2E/DX2                !
 ! D7    D(51,1,6,5)          -179.2554         estimate D2E/DX2                !
 ! D8    D(51,1,6,14)           -0.0844         estimate D2E/DX2                !
 ! D9    D(2,1,51,52)           -3.5563         estimate D2E/DX2                !
 ! D10   D(2,1,51,69)          169.853          estimate D2E/DX2                !
 ! D11   D(6,1,51,52)          175.3235         estimate D2E/DX2                !
 ! D12   D(6,1,51,69)          -11.2672         estimate D2E/DX2                !
 ! D13   D(1,2,3,4)             -0.6921         estimate D2E/DX2                !
 ! D14   D(1,2,3,11)           179.7002         estimate D2E/DX2                !
 ! D15   D(10,2,3,4)           179.3766         estimate D2E/DX2                !
 ! D16   D(10,2,3,11)           -0.2311         estimate D2E/DX2                !
 ! D17   D(2,3,4,5)              0.0289         estimate D2E/DX2                !
 ! D18   D(2,3,4,12)          -179.6873         estimate D2E/DX2                !
 ! D19   D(11,3,4,5)           179.6365         estimate D2E/DX2                !
 ! D20   D(11,3,4,12)           -0.0797         estimate D2E/DX2                !
 ! D21   D(3,4,5,6)              0.4603         estimate D2E/DX2                !
 ! D22   D(3,4,5,13)          -179.4599         estimate D2E/DX2                !
 ! D23   D(12,4,5,6)          -179.8232         estimate D2E/DX2                !
 ! D24   D(12,4,5,13)            0.2565         estimate D2E/DX2                !
 ! D25   D(4,5,6,1)             -0.2695         estimate D2E/DX2                !
 ! D26   D(4,5,6,14)          -179.4227         estimate D2E/DX2                !
 ! D27   D(13,5,6,1)           179.6507         estimate D2E/DX2                !
 ! D28   D(13,5,6,14)            0.4975         estimate D2E/DX2                !
 ! D29   D(9,7,8,16)            -8.1154         estimate D2E/DX2                !
 ! D30   D(9,7,8,17)           171.4788         estimate D2E/DX2                !
 ! D31   D(69,7,8,16)          169.5148         estimate D2E/DX2                !
 ! D32   D(69,7,8,17)          -10.8911         estimate D2E/DX2                !
 ! D33   D(8,7,9,15)            -7.8282         estimate D2E/DX2                !
 ! D34   D(8,7,9,18)           174.3425         estimate D2E/DX2                !
 ! D35   D(69,7,9,15)          174.3126         estimate D2E/DX2                !
 ! D36   D(69,7,9,18)           -3.5166         estimate D2E/DX2                !
 ! D37   D(8,7,69,51)           24.6104         estimate D2E/DX2                !
 ! D38   D(9,7,69,51)         -157.562          estimate D2E/DX2                !
 ! D39   D(7,8,16,68)           -5.0061         estimate D2E/DX2                !
 ! D40   D(17,8,16,68)         175.4125         estimate D2E/DX2                !
 ! D41   D(7,8,17,19)          175.5445         estimate D2E/DX2                !
 ! D42   D(16,8,17,19)          -4.8422         estimate D2E/DX2                !
 ! D43   D(7,9,15,68)           36.3484         estimate D2E/DX2                !
 ! D44   D(18,9,15,68)        -145.9274         estimate D2E/DX2                !
 ! D45   D(7,9,18,20)          171.7668         estimate D2E/DX2                !
 ! D46   D(15,9,18,20)          -6.1365         estimate D2E/DX2                !
 ! D47   D(9,15,68,16)         -34.4576         estimate D2E/DX2                !
 ! D48   D(9,15,68,27)         178.2922         estimate D2E/DX2                !
 ! D49   D(9,15,68,28)         -92.4846         estimate D2E/DX2                !
 ! D50   D(9,15,68,29)          47.5288         estimate D2E/DX2                !
 ! D51   D(9,15,68,30)          46.2388         estimate D2E/DX2                !
 ! D52   D(9,15,68,31)         148.7511         estimate D2E/DX2                !
 ! D53   D(9,15,68,32)        -100.7103         estimate D2E/DX2                !
 ! D54   D(9,15,68,33)          38.1831         estimate D2E/DX2                !
 ! D55   D(9,15,68,35)         118.1821         estimate D2E/DX2                !
 ! D56   D(9,15,68,37)        -109.9109         estimate D2E/DX2                !
 ! D57   D(8,16,68,15)          19.2608         estimate D2E/DX2                !
 ! D58   D(8,16,68,27)          87.3962         estimate D2E/DX2                !
 ! D59   D(8,16,68,28)         167.1359         estimate D2E/DX2                !
 ! D60   D(8,16,68,29)         -56.4298         estimate D2E/DX2                !
 ! D61   D(8,16,68,30)         -86.5978         estimate D2E/DX2                !
 ! D62   D(8,16,68,32)         137.3149         estimate D2E/DX2                !
 ! D63   D(8,16,68,33)        -116.8509         estimate D2E/DX2                !
 ! D64   D(8,16,68,35)         -59.6942         estimate D2E/DX2                !
 ! D65   D(8,16,68,37)         105.8101         estimate D2E/DX2                !
 ! D66   D(8,17,19,21)         172.878          estimate D2E/DX2                !
 ! D67   D(8,17,19,22)          52.7797         estimate D2E/DX2                !
 ! D68   D(8,17,19,23)         -67.9077         estimate D2E/DX2                !
 ! D69   D(9,18,20,24)        -179.63           estimate D2E/DX2                !
 ! D70   D(9,18,20,25)          60.8109         estimate D2E/DX2                !
 ! D71   D(9,18,20,26)         -60.5981         estimate D2E/DX2                !
 ! D72   D(29,30,41,48)        -39.1055         estimate D2E/DX2                !
 ! D73   D(29,30,41,49)       -159.391          estimate D2E/DX2                !
 ! D74   D(29,30,41,50)         80.7111         estimate D2E/DX2                !
 ! D75   D(33,30,41,48)         71.6901         estimate D2E/DX2                !
 ! D76   D(33,30,41,49)        -48.5954         estimate D2E/DX2                !
 ! D77   D(33,30,41,50)       -168.4933         estimate D2E/DX2                !
 ! D78   D(34,30,41,48)       -164.2614         estimate D2E/DX2                !
 ! D79   D(34,30,41,49)         75.4531         estimate D2E/DX2                !
 ! D80   D(34,30,41,50)        -44.4448         estimate D2E/DX2                !
 ! D81   D(68,30,41,48)         18.2859         estimate D2E/DX2                !
 ! D82   D(68,30,41,49)       -101.9996         estimate D2E/DX2                !
 ! D83   D(68,30,41,50)        138.1025         estimate D2E/DX2                !
 ! D84   D(34,30,68,15)         99.2049         estimate D2E/DX2                !
 ! D85   D(34,30,68,16)        174.3568         estimate D2E/DX2                !
 ! D86   D(34,30,68,27)         -1.0064         estimate D2E/DX2                !
 ! D87   D(34,30,68,28)       -105.8779         estimate D2E/DX2                !
 ! D88   D(34,30,68,31)          0.747          estimate D2E/DX2                !
 ! D89   D(34,30,68,32)       -123.083          estimate D2E/DX2                !
 ! D90   D(34,30,68,35)          7.226          estimate D2E/DX2                !
 ! D91   D(34,30,68,37)       -155.7931         estimate D2E/DX2                !
 ! D92   D(41,30,68,15)        -84.2564         estimate D2E/DX2                !
 ! D93   D(41,30,68,16)         -9.1045         estimate D2E/DX2                !
 ! D94   D(41,30,68,27)        175.5323         estimate D2E/DX2                !
 ! D95   D(41,30,68,28)         70.6608         estimate D2E/DX2                !
 ! D96   D(41,30,68,31)        177.2857         estimate D2E/DX2                !
 ! D97   D(41,30,68,32)         53.4557         estimate D2E/DX2                !
 ! D98   D(41,30,68,35)       -176.2353         estimate D2E/DX2                !
 ! D99   D(41,30,68,37)         20.7456         estimate D2E/DX2                !
 ! D100  D(27,31,40,45)         57.1847         estimate D2E/DX2                !
 ! D101  D(27,31,40,46)        -62.0576         estimate D2E/DX2                !
 ! D102  D(27,31,40,47)        176.7542         estimate D2E/DX2                !
 ! D103  D(35,31,40,45)        -51.475          estimate D2E/DX2                !
 ! D104  D(35,31,40,46)       -170.7173         estimate D2E/DX2                !
 ! D105  D(35,31,40,47)         68.0945         estimate D2E/DX2                !
 ! D106  D(36,31,40,45)       -177.4517         estimate D2E/DX2                !
 ! D107  D(36,31,40,46)         63.306          estimate D2E/DX2                !
 ! D108  D(36,31,40,47)        -57.8822         estimate D2E/DX2                !
 ! D109  D(68,31,40,45)          3.597          estimate D2E/DX2                !
 ! D110  D(68,31,40,46)       -115.6453         estimate D2E/DX2                !
 ! D111  D(68,31,40,47)        123.1665         estimate D2E/DX2                !
 ! D112  D(36,31,68,15)         -6.8798         estimate D2E/DX2                !
 ! D113  D(36,31,68,28)       -152.982          estimate D2E/DX2                !
 ! D114  D(36,31,68,29)         67.6598         estimate D2E/DX2                !
 ! D115  D(36,31,68,30)         98.5795         estimate D2E/DX2                !
 ! D116  D(36,31,68,32)       -122.0276         estimate D2E/DX2                !
 ! D117  D(36,31,68,33)        129.3882         estimate D2E/DX2                !
 ! D118  D(36,31,68,37)        -91.1574         estimate D2E/DX2                !
 ! D119  D(40,31,68,15)        171.2623         estimate D2E/DX2                !
 ! D120  D(40,31,68,28)         25.16           estimate D2E/DX2                !
 ! D121  D(40,31,68,29)       -114.1981         estimate D2E/DX2                !
 ! D122  D(40,31,68,30)        -83.2784         estimate D2E/DX2                !
 ! D123  D(40,31,68,32)         56.1144         estimate D2E/DX2                !
 ! D124  D(40,31,68,33)        -52.4698         estimate D2E/DX2                !
 ! D125  D(40,31,68,37)         86.9847         estimate D2E/DX2                !
 ! D126  D(28,32,37,59)        147.5943         estimate D2E/DX2                !
 ! D127  D(38,32,37,59)         14.0032         estimate D2E/DX2                !
 ! D128  D(39,32,37,59)       -102.6146         estimate D2E/DX2                !
 ! D129  D(28,32,39,42)        166.0999         estimate D2E/DX2                !
 ! D130  D(28,32,39,43)         45.8759         estimate D2E/DX2                !
 ! D131  D(28,32,39,44)        -74.4011         estimate D2E/DX2                !
 ! D132  D(37,32,39,42)         54.5803         estimate D2E/DX2                !
 ! D133  D(37,32,39,43)        -65.6438         estimate D2E/DX2                !
 ! D134  D(37,32,39,44)        174.0792         estimate D2E/DX2                !
 ! D135  D(38,32,39,42)        -70.1274         estimate D2E/DX2                !
 ! D136  D(38,32,39,43)        169.6486         estimate D2E/DX2                !
 ! D137  D(38,32,39,44)         49.3716         estimate D2E/DX2                !
 ! D138  D(68,32,39,42)        113.3656         estimate D2E/DX2                !
 ! D139  D(68,32,39,43)         -6.8585         estimate D2E/DX2                !
 ! D140  D(68,32,39,44)       -127.1355         estimate D2E/DX2                !
 ! D141  D(38,32,68,15)         78.2835         estimate D2E/DX2                !
 ! D142  D(38,32,68,16)          9.9904         estimate D2E/DX2                !
 ! D143  D(38,32,68,27)        163.2581         estimate D2E/DX2                !
 ! D144  D(38,32,68,29)        -17.3364         estimate D2E/DX2                !
 ! D145  D(38,32,68,30)        -56.8909         estimate D2E/DX2                !
 ! D146  D(38,32,68,31)       -178.4447         estimate D2E/DX2                !
 ! D147  D(38,32,68,33)        -72.2553         estimate D2E/DX2                !
 ! D148  D(38,32,68,35)       -159.3866         estimate D2E/DX2                !
 ! D149  D(39,32,68,15)       -106.4418         estimate D2E/DX2                !
 ! D150  D(39,32,68,16)       -174.7349         estimate D2E/DX2                !
 ! D151  D(39,32,68,27)        -21.4672         estimate D2E/DX2                !
 ! D152  D(39,32,68,29)        157.9383         estimate D2E/DX2                !
 ! D153  D(39,32,68,30)        118.3838         estimate D2E/DX2                !
 ! D154  D(39,32,68,31)         -3.17           estimate D2E/DX2                !
 ! D155  D(39,32,68,33)        103.0194         estimate D2E/DX2                !
 ! D156  D(39,32,68,35)         15.8881         estimate D2E/DX2                !
 ! D157  D(32,37,59,56)       -102.7994         estimate D2E/DX2                !
 ! D158  D(68,37,59,56)         -2.1693         estimate D2E/DX2                !
 ! D159  D(59,37,68,15)         62.3992         estimate D2E/DX2                !
 ! D160  D(59,37,68,16)        -16.0207         estimate D2E/DX2                !
 ! D161  D(59,37,68,27)        152.8034         estimate D2E/DX2                !
 ! D162  D(59,37,68,28)       -105.2467         estimate D2E/DX2                !
 ! D163  D(59,37,68,29)         18.3652         estimate D2E/DX2                !
 ! D164  D(59,37,68,30)        -46.9712         estimate D2E/DX2                !
 ! D165  D(59,37,68,31)        156.5868         estimate D2E/DX2                !
 ! D166  D(59,37,68,33)        -85.5474         estimate D2E/DX2                !
 ! D167  D(59,37,68,35)        154.9269         estimate D2E/DX2                !
 ! D168  D(1,51,69,7)          174.8629         estimate D2E/DX2                !
 ! D169  D(52,51,69,7)         -11.6479         estimate D2E/DX2                !
 ! D170  D(54,53,64,65)         20.1423         estimate D2E/DX2                !
 ! D171  D(54,53,64,66)       -159.5312         estimate D2E/DX2                !
 ! D172  D(55,53,64,65)       -175.646          estimate D2E/DX2                !
 ! D173  D(55,53,64,66)          4.6805         estimate D2E/DX2                !
 ! D174  D(59,56,58,57)        179.8903         estimate D2E/DX2                !
 ! D175  D(59,56,58,61)         -0.7457         estimate D2E/DX2                !
 ! D176  D(66,56,58,57)          0.3002         estimate D2E/DX2                !
 ! D177  D(66,56,58,61)        179.6643         estimate D2E/DX2                !
 ! D178  D(58,56,59,37)        112.6775         estimate D2E/DX2                !
 ! D179  D(66,56,59,37)        -67.7329         estimate D2E/DX2                !
 ! D180  D(58,56,66,64)         -0.2949         estimate D2E/DX2                !
 ! D181  D(58,56,66,67)        178.9146         estimate D2E/DX2                !
 ! D182  D(59,56,66,64)       -179.8993         estimate D2E/DX2                !
 ! D183  D(59,56,66,67)         -0.6899         estimate D2E/DX2                !
 ! D184  D(60,57,58,56)        179.8575         estimate D2E/DX2                !
 ! D185  D(60,57,58,61)          0.4888         estimate D2E/DX2                !
 ! D186  D(65,57,58,56)          0.3531         estimate D2E/DX2                !
 ! D187  D(65,57,58,61)       -179.0157         estimate D2E/DX2                !
 ! D188  D(58,57,65,64)         -1.0018         estimate D2E/DX2                !
 ! D189  D(60,57,65,64)        179.4623         estimate D2E/DX2                !
 ! D190  D(53,64,65,57)       -178.6605         estimate D2E/DX2                !
 ! D191  D(66,64,65,57)          1.0114         estimate D2E/DX2                !
 ! D192  D(53,64,66,56)        179.2722         estimate D2E/DX2                !
 ! D193  D(53,64,66,67)          0.0132         estimate D2E/DX2                !
 ! D194  D(65,64,66,56)         -0.3746         estimate D2E/DX2                !
 ! D195  D(65,64,66,67)       -179.6336         estimate D2E/DX2                !
 --------------------------------------------------------------------------------
 Trust Radius=3.00D-01 FncErr=1.00D-07 GrdErr=1.00D-06 EigMax=2.50D+02 EigMin=1.00D-04
 Number of steps in this run=    414 maximum allowed number of steps=    414.
 GradGradGradGradGradGradGradGradGradGradGradGradGradGradGradGradGradGrad

 Leave Link  103 at Mon Apr 21 16:06:14 2025, MaxMem= 82678120448 cpu:               1.6 elap:               0.1
 (Enter /sysapps/ubuntu-applications/gaussian-new/avx/g16/l202.exe)
 Stoichiometry    C22H16F9LuN4O14S3
 Framework group  C1[X(C22H16F9LuN4O14S3)]
 Deg. of freedom   201
 Full point group                 C1      NOp   1
 Largest Abelian subgroup         C1      NOp   1
 Largest concise Abelian subgroup C1      NOp   1
                         Standard orientation:                         
 ---------------------------------------------------------------------
 Center     Atomic      Atomic             Coordinates (Angstroms)
 Number     Number       Type             X           Y           Z
 ---------------------------------------------------------------------
      1          6           0       -5.635615   -1.078021   -0.226867
      2          6           0       -6.794096   -0.849590    0.542850
      3          6           0       -8.012143   -1.368774    0.116493
      4          6           0       -8.074617   -2.097057   -1.075610
      5          6           0       -6.925877   -2.314695   -1.851931
      6          6           0       -5.703272   -1.811305   -1.433242
      7          6           0       -2.001631   -0.529753   -0.259900
      8          6           0       -1.434164    0.051223    0.900788
      9          6           0       -1.233986   -0.828017   -1.427369
     10          1           0       -6.722668   -0.269022    1.465205
     11          1           0       -8.915228   -1.202954    0.706166
     12          1           0       -9.033244   -2.499369   -1.410923
     13          1           0       -6.995625   -2.878083   -2.784031
     14          1           0       -4.794881   -1.957864   -2.022650
     15          8           0       -0.037453   -0.478610   -1.584788
     16          8           0       -0.205605    0.220898    1.071399
     17          8           0       -2.285631    0.434916    1.841570
     18          8           0       -1.872871   -1.468038   -2.375877
     19          6           0       -1.735586    0.935838    3.067229
     20          6           0       -1.212372   -1.633376   -3.630862
     21          1           0       -2.583264    1.313650    3.648593
     22          1           0       -1.013912    1.738617    2.864851
     23          1           0       -1.232391    0.127378    3.612884
     24          1           0       -1.910909   -2.179206   -4.273033
     25          1           0       -0.283950   -2.206748   -3.506054
     26          1           0       -0.985473   -0.652697   -4.071056
     27          8           0        3.008484    0.307175   -1.838446
     28          8           0        2.604824    1.129898    1.343728
     29          8           0        0.538648   -2.498632    0.219905
     30         16           0        1.396439   -2.882843    1.376326
     31         16           0        3.732195   -0.991636   -2.005311
     32         16           0        2.050741    2.407385    0.797248
     33          8           0        2.200525   -1.663984    1.706893
     34          8           0        2.091891   -4.143063    1.321573
     35          8           0        2.994250   -1.956350   -1.134895
     36          8           0        4.092912   -1.405538   -3.333652
     37          8           0        1.318261    2.048600   -0.446394
     38          8           0        1.390108    3.292735    1.730691
     39          6           0        3.537941    3.326763    0.222240
     40          6           0        5.287732   -0.693847   -1.070927
     41          6           0        0.223574   -3.051898    2.790438
     42          9           0        3.147407    4.329517   -0.544277
     43          9           0        4.328684    2.524152   -0.463320
     44          9           0        4.186215    3.797387    1.271159
     45          9           0        4.956313   -0.365706    0.171033
     46          9           0        5.958318    0.296313   -1.624962
     47          9           0        6.025415   -1.785149   -1.059449
     48          9           0       -0.700765   -2.103891    2.739628
     49          9           0        0.889540   -2.951357    3.924570
     50          9           0       -0.363107   -4.231467    2.722090
     51          6           0       -4.391831   -0.530772    0.226246
     52          1           0       -4.336946    0.102389    1.117693
     53          6           0       -4.429036    1.931284   -0.933487
     54          6           0       -5.795327    2.103038   -0.617322
     55          6           0       -4.031498    1.359714   -2.159308
     56          6           0       -1.353923    3.619810    0.202221
     57          6           0       -3.120480    3.773464    1.783618
     58          6           0       -1.801116    4.082829    1.431723
     59          1           0       -0.345729    3.810464   -0.160191
     60          1           0       -3.553593    4.095786    2.733179
     61          1           0       -1.156870    4.652242    2.101541
     62          7           0       -6.931508    2.205351   -0.376967
     63          7           0       -3.698814    0.842180   -3.151016
     64          7           0       -3.484578    2.651055   -0.161434
     65          7           0       -3.933313    3.069584    1.012659
     66          6           0       -2.227291    2.894948   -0.596352
     67          1           0       -1.960549    2.510528   -1.582325
     68         71           0        1.584625   -0.352988   -0.111005
     69          8           0       -3.323360   -0.905717   -0.364913
 ---------------------------------------------------------------------
 Rotational constants (GHZ):           0.0741011           0.0351523           0.0308844
 Leave Link  202 at Mon Apr 21 16:06:15 2025, MaxMem= 82678120448 cpu:               2.2 elap:               0.2
 (Enter /sysapps/ubuntu-applications/gaussian-new/avx/g16/l301.exe)
 General basis read from cards:  (5D, 7F)
 Centers:      10     11     12     13     14     21     22     23     24     25
 Centers:      26     52     59     60     61     67
 S 3 1.00
     Exponent=  1.3010701000D+01 Coefficients=  1.9682158000D-02
     Exponent=  1.9622572000D+00 Coefficients=  1.3796524000D-01
     Exponent=  4.4453796000D-01 Coefficients=  4.7831935000D-01
 S 1 1.00
     Exponent=  1.2194962000D-01 Coefficients=  1.0000000000D+00
 P 1 1.00
     Exponent=  8.0000000000D-01 Coefficients=  1.0000000000D+00
 ****
 Centers:       1      2      3      4      5      6      7      8      9     19
 Centers:      20     39     40     41     51     53     54     55     56     57
 Centers:      58     66
 S 5 1.00
     Exponent=  1.2384016938D+03 Coefficients=  5.4568832082D-03
     Exponent=  1.8629004992D+02 Coefficients=  4.0638409211D-02
     Exponent=  4.2251176346D+01 Coefficients=  1.8025593888D-01
     Exponent=  1.1676557932D+01 Coefficients=  4.6315121755D-01
     Exponent=  3.5930506482D+00 Coefficients=  4.4087173314D-01
 S 1 1.00
     Exponent=  4.0245147363D-01 Coefficients=  1.0000000000D+00
 S 1 1.00
     Exponent=  1.3090182668D-01 Coefficients=  1.0000000000D+00
 P 3 1.00
     Exponent=  9.4680970621D+00 Coefficients=  3.8387871728D-02
     Exponent=  2.0103545142D+00 Coefficients=  2.1117025112D-01
     Exponent=  5.4771004707D-01 Coefficients=  5.1328172114D-01
 P 1 1.00
     Exponent=  1.5268613795D-01 Coefficients=  1.0000000000D+00
 D 1 1.00
     Exponent=  8.0000000000D-01 Coefficients=  1.0000000000D+00
 ****
 Centers:      62     63     64     65
 S 5 1.00
     Exponent=  1.7128415853D+03 Coefficients= -5.3934125305D-03
     Exponent=  2.5764812677D+02 Coefficients= -4.0221581118D-02
     Exponent=  5.8458245853D+01 Coefficients= -1.7931144990D-01
     Exponent=  1.6198367905D+01 Coefficients= -4.6376317823D-01
     Exponent=  5.0052600809D+00 Coefficients= -4.4171422662D-01
 S 1 1.00
     Exponent=  5.8731856571D-01 Coefficients=  1.0000000000D+00
 S 1 1.00
     Exponent=  1.8764592253D-01 Coefficients=  1.0000000000D+00
 P 3 1.00
     Exponent=  1.3571470233D+01 Coefficients= -4.0072398852D-02
     Exponent=  2.9257372874D+00 Coefficients= -2.1807045028D-01
     Exponent=  7.9927750754D-01 Coefficients= -5.1294466049D-01
 P 1 1.00
     Exponent=  2.1954348034D-01 Coefficients=  1.0000000000D+00
 D 1 1.00
     Exponent=  1.0000000000D+00 Coefficients=  1.0000000000D+00
 ****
 Centers:      15     16     17     18     27     28     29     33     34     35
 Centers:      36     37     38     69
 S 5 1.00
     Exponent=  2.2661767785D+03 Coefficients= -5.3431809926D-03
     Exponent=  3.4087010191D+02 Coefficients= -3.9890039230D-02
     Exponent=  7.7363135167D+01 Coefficients= -1.7853911985D-01
     Exponent=  2.1479644940D+01 Coefficients= -4.6427684959D-01
     Exponent=  6.6589433124D+00 Coefficients= -4.4309745172D-01
 S 1 1.00
     Exponent=  8.0975975668D-01 Coefficients=  1.0000000000D+00
 S 1 1.00
     Exponent=  2.5530772234D-01 Coefficients=  1.0000000000D+00
 P 3 1.00
     Exponent=  1.7721504317D+01 Coefficients=  4.3394573193D-02
     Exponent=  3.8635505440D+00 Coefficients=  2.3094120765D-01
     Exponent=  1.0480920883D+00 Coefficients=  5.1375311064D-01
 P 1 1.00
     Exponent=  2.7641544411D-01 Coefficients=  1.0000000000D+00
 D 1 1.00
     Exponent=  1.2000000000D+00 Coefficients=  1.0000000000D+00
 ****
 Centers:      42     43     44     45     46     47     48     49     50
 S 5 1.00
     Exponent=  2.8948325990D+03 Coefficients= -5.3408255515D-03
     Exponent=  4.3541939120D+02 Coefficients= -3.9904258866D-02
     Exponent=  9.8843328866D+01 Coefficients= -1.7912768038D-01
     Exponent=  2.7485198001D+01 Coefficients= -4.6758090825D-01
     Exponent=  8.5405498171D+00 Coefficients= -4.4653131020D-01
 S 1 1.00
     Exponent=  1.0654578038D+00 Coefficients=  1.0000000000D+00
 S 1 1.00
     Exponent=  3.3247346748D-01 Coefficients=  1.0000000000D+00
 P 3 1.00
     Exponent=  2.2696633924D+01 Coefficients= -4.5212874436D-02
     Exponent=  4.9872339257D+00 Coefficients= -2.3754317067D-01
     Exponent=  1.3491613954D+00 Coefficients= -5.1287353587D-01
 P 1 1.00
     Exponent=  3.4829881977D-01 Coefficients=  1.0000000000D+00
 D 1 1.00
     Exponent=  1.4000000000D+00 Coefficients=  1.0000000000D+00
 ****
 Centers:      30     31     32
 S 5 1.00
     Exponent=  9.1849303010D+03 Coefficients= -2.2294387756D-03
     Exponent=  1.3815105503D+03 Coefficients= -1.6683029937D-02
     Exponent=  3.1387147580D+02 Coefficients= -7.5262436116D-02
     Exponent=  8.8053870623D+01 Coefficients= -1.9376827038D-01
     Exponent=  2.7039914905D+01 Coefficients= -1.7718020803D-01
 S 3 1.00
     Exponent=  4.5648731303D+01 Coefficients= -1.0736062573D-01
     Exponent=  4.9664522326D+00 Coefficients=  6.5066293018D-01
     Exponent=  2.0116242047D+00 Coefficients=  5.9712155354D-01
 S 1 1.00
     Exponent=  3.5661077013D-01 Coefficients=  1.0000000000D+00
 S 1 1.00
     Exponent=  1.3507221477D-01 Coefficients=  1.0000000000D+00
 P 5 1.00
     Exponent=  2.6198233439D+02 Coefficients= -9.2729929822D-03
     Exponent=  6.1306894736D+01 Coefficients= -6.6547669241D-02
     Exponent=  1.9103729887D+01 Coefficients= -2.4828595903D-01
     Exponent=  6.6567720378D+00 Coefficients= -4.8703847402D-01
     Exponent=  2.3959635161D+00 Coefficients= -3.9337850312D-01
 P 1 1.00
     Exponent=  6.1776161679D-01 Coefficients=  1.0000000000D+00
 P 1 1.00
     Exponent=  1.6993376871D-01 Coefficients=  1.0000000000D+00
 D 1 1.00
     Exponent=  5.5000000000D-01 Coefficients=  1.0000000000D+00
 ****
 Centers:      68
 S 5 1.00
     Exponent=  9.5169767000D+04 Coefficients=  2.2000000000D-05
     Exponent=  1.5488403000D+04 Coefficients=  1.4500000000D-04
     Exponent=  3.7762335000D+03 Coefficients=  6.5100000000D-04
     Exponent=  1.0790501000D+03 Coefficients=  2.0380000000D-03
     Exponent=  2.6895380000D+02 Coefficients=  5.1270000000D-03
 S 1 1.00
     Exponent=  6.3467900000D+01 Coefficients=  1.0000000000D+00
 S 1 1.00
     Exponent=  4.5133200000D+01 Coefficients=  1.0000000000D+00
 S 1 1.00
     Exponent=  2.1456800000D+01 Coefficients=  1.0000000000D+00
 S 1 1.00
     Exponent=  5.3483000000D+00 Coefficients=  1.0000000000D+00
 S 1 1.00
     Exponent=  2.6778000000D+00 Coefficients=  1.0000000000D+00
 S 1 1.00
     Exponent=  1.0287000000D+00 Coefficients=  1.0000000000D+00
 S 1 1.00
     Exponent=  4.4080000000D-01 Coefficients=  1.0000000000D+00
 S 1 1.00
     Exponent=  7.9100000000D-02 Coefficients=  1.0000000000D+00
 S 1 1.00
     Exponent=  3.1300000000D-02 Coefficients=  1.0000000000D+00
 P 3 1.00
     Exponent=  1.2333733920D+01 Coefficients= -1.5313031066D-01
     Exponent=  1.1080331415D+01 Coefficients= -2.0300664852D-01
     Exponent=  2.0341747228D+00 Coefficients= -1.9458361263D-01
 P 6 1.00
     Exponent=  1.5005317313D+03 Coefficients= -1.0192569555D-03
     Exponent=  3.8239748937D+02 Coefficients= -5.9476212135D-03
     Exponent=  1.3299969628D+02 Coefficients= -1.6265160929D-02
     Exponent=  4.6110032419D+01 Coefficients= -3.5623845839D-02
     Exponent=  1.5583529011D+01 Coefficients=  2.3709171074D-01
     Exponent=  5.7856677022D+00 Coefficients= -3.0670977844D-01
 P 1 1.00
     Exponent=  3.7823361008D+00 Coefficients=  1.0000000000D+00
 P 1 1.00
     Exponent=  1.3682592248D+00 Coefficients=  1.0000000000D+00
 P 1 1.00
     Exponent=  5.7288205601D-01 Coefficients=  1.0000000000D+00
 P 1 1.00
     Exponent=  2.2793165135D-01 Coefficients=  1.0000000000D+00
 P 1 1.00
     Exponent=  8.1403917986D-02 Coefficients=  1.0000000000D+00
 P 1 1.00
     Exponent=  2.9091071778D-02 Coefficients=  1.0000000000D+00
 D 6 1.00
     Exponent=  4.8452750000D+02 Coefficients=  2.2860000000D-03
     Exponent=  1.4666550000D+02 Coefficients=  1.8629000000D-02
     Exponent=  5.6377900000D+01 Coefficients=  7.4088000000D-02
     Exponent=  2.3671100000D+01 Coefficients=  1.6155400000D-01
     Exponent=  9.4401000000D+00 Coefficients=  3.0809100000D-01
     Exponent=  4.3712000000D+00 Coefficients=  4.4833400000D-01
 D 1 1.00
     Exponent=  1.9580000000D+00 Coefficients=  1.0000000000D+00
 D 1 1.00
     Exponent=  7.2720000000D-01 Coefficients=  1.0000000000D+00
 D 1 1.00
     Exponent=  2.4600000000D-01 Coefficients=  1.0000000000D+00
 D 1 1.00
     Exponent=  7.4400000000D-02 Coefficients=  1.0000000000D+00
 F 5 1.00
     Exponent=  1.7515590000D+02 Coefficients=  4.1020000000D-03
     Exponent=  6.2890900000D+01 Coefficients=  3.9086000000D-02
     Exponent=  2.8362400000D+01 Coefficients=  1.4704400000D-01
     Exponent=  1.3247800000D+01 Coefficients=  2.7109200000D-01
     Exponent=  6.1440000000D+00 Coefficients=  3.4566500000D-01
 F 1 1.00
     Exponent=  2.7623000000D+00 Coefficients=  1.0000000000D+00
 F 1 1.00
     Exponent=  1.1574000000D+00 Coefficients=  1.0000000000D+00
 F 1 1.00
     Exponent=  4.2440000000D-01 Coefficients=  1.0000000000D+00
 G 1 1.00
     Exponent=  7.0090000000D-01 Coefficients=  1.0000000000D+00
 ****
 ======================================================================================================
                                       Pseudopotential Parameters
 ======================================================================================================
  Center     Atomic      Valence      Angular      Power
  Number     Number     Electrons     Momentum     of R      Exponent        Coefficient   SO-Coeffient
 ======================================================================================================
    1          6
                                   No pseudopotential on this center.
    2          6
                                   No pseudopotential on this center.
    3          6
                                   No pseudopotential on this center.
    4          6
                                   No pseudopotential on this center.
    5          6
                                   No pseudopotential on this center.
    6          6
                                   No pseudopotential on this center.
    7          6
                                   No pseudopotential on this center.
    8          6
                                   No pseudopotential on this center.
    9          6
                                   No pseudopotential on this center.
   10          1
                                   No pseudopotential on this center.
   11          1
                                   No pseudopotential on this center.
   12          1
                                   No pseudopotential on this center.
   13          1
                                   No pseudopotential on this center.
   14          1
                                   No pseudopotential on this center.
   15          8
                                   No pseudopotential on this center.
   16          8
                                   No pseudopotential on this center.
   17          8
                                   No pseudopotential on this center.
   18          8
                                   No pseudopotential on this center.
   19          6
                                   No pseudopotential on this center.
   20          6
                                   No pseudopotential on this center.
   21          1
                                   No pseudopotential on this center.
   22          1
                                   No pseudopotential on this center.
   23          1
                                   No pseudopotential on this center.
   24          1
                                   No pseudopotential on this center.
   25          1
                                   No pseudopotential on this center.
   26          1
                                   No pseudopotential on this center.
   27          8
                                   No pseudopotential on this center.
   28          8
                                   No pseudopotential on this center.
   29          8
                                   No pseudopotential on this center.
   30         16
                                   No pseudopotential on this center.
   31         16
                                   No pseudopotential on this center.
   32         16
                                   No pseudopotential on this center.
   33          8
                                   No pseudopotential on this center.
   34          8
                                   No pseudopotential on this center.
   35          8
                                   No pseudopotential on this center.
   36          8
                                   No pseudopotential on this center.
   37          8
                                   No pseudopotential on this center.
   38          8
                                   No pseudopotential on this center.
   39          6
                                   No pseudopotential on this center.
   40          6
                                   No pseudopotential on this center.
   41          6
                                   No pseudopotential on this center.
   42          9
                                   No pseudopotential on this center.
   43          9
                                   No pseudopotential on this center.
   44          9
                                   No pseudopotential on this center.
   45          9
                                   No pseudopotential on this center.
   46          9
                                   No pseudopotential on this center.
   47          9
                                   No pseudopotential on this center.
   48          9
                                   No pseudopotential on this center.
   49          9
                                   No pseudopotential on this center.
   50          9
                                   No pseudopotential on this center.
   51          6
                                   No pseudopotential on this center.
   52          1
                                   No pseudopotential on this center.
   53          6
                                   No pseudopotential on this center.
   54          6
                                   No pseudopotential on this center.
   55          6
                                   No pseudopotential on this center.
   56          6
                                   No pseudopotential on this center.
   57          6
                                   No pseudopotential on this center.
   58          6
                                   No pseudopotential on this center.
   59          1
                                   No pseudopotential on this center.
   60          1
                                   No pseudopotential on this center.
   61          1
                                   No pseudopotential on this center.
   62          7
                                   No pseudopotential on this center.
   63          7
                                   No pseudopotential on this center.
   64          7
                                   No pseudopotential on this center.
   65          7
                                   No pseudopotential on this center.
   66          6
                                   No pseudopotential on this center.
   67          1
                                   No pseudopotential on this center.
   68         71           43
                                      H and up 
                                                     2        1.0000000        0.00000000    0.00000000
                                      S - H
                                                     2       35.1620970      989.99558400    0.00000000
                                      P - H
                                                     2       19.4644020      278.86565200    0.00000000
                                      D - H
                                                     2       10.0068650       71.00917800    0.00000000
                                      F - H
                                                     2       23.5179320      -47.40589000    0.00000000
                                      G - H
                                                     2       29.4122380      -35.55714600    0.00000000
   69          8
                                   No pseudopotential on this center.
 ======================================================================================================
 Ernie: Thresh=  0.10000D-02 Tol=  0.10000D-05 Strict=F.
 There are   991 symmetry adapted cartesian basis functions of A   symmetry.
 There are   916 symmetry adapted basis functions of A   symmetry.
   916 basis functions,  1662 primitive gaussians,   991 cartesian basis functions
   230 alpha electrons      230 beta electrons
       nuclear repulsion energy     11669.5784296501 Hartrees.
 IExCor= 7252 DFT=T Ex+Corr=MN15 ExCW=0 ScaHFX=  0.440000
 ScaDFX=  1.000000  1.000000  1.000000  1.000000 ScalE2=  1.000000  1.000000
 IRadAn=      5 IRanWt=     -1 IRanGd=            0 ICorTp=0 IEmpDi=  4
 NAtoms=   69 NActive=   69 NUniq=   69 SFac= 1.00D+00 NAtFMM=   60 NAOKFM=T Big=T
 Integral buffers will be    131072 words long.
 Raffenetti 2 integral format.
 Two-electron integral symmetry is turned on.
 ------------------------------------------------------------------------------
 Polarizable Continuum Model (PCM)
 =================================
 Model                : PCM.
 Atomic radii         : SMD-Coulomb.
 Polarization charges : Total charges.
 Charge compensation  : None.
 Solution method      : On-the-fly selection.
 Cavity type          : VdW (van der Waals Surface) (Alpha=1.000).
 Cavity algorithm     : GePol (No added spheres)
                        Default sphere list used, NSphG=   69.
                        Lebedev-Laikov grids with approx.  5.0 points / Ang**2.
                        Smoothing algorithm: York/Karplus (Gamma=1.0000).
                        Polarization charges: spherical gaussians, with
                                              point-specific exponents (IZeta= 3).
                        Self-potential: point-specific (ISelfS= 7).
                        Self-field    : sphere-specific E.n sum rule (ISelfD= 2).
 1st derivatives      : Analytical E(r).r(x)/FMM algorithm (CHGder, D1EAlg=3).
                        Cavity 1st derivative terms included.
 Solvent              : DiChloroEthane, Eps=  10.125000 Eps(inf)=   2.087447
 ------------------------------------------------------------------------------
 GePol: Number of generator spheres                  =      69
 GePol: Total number of spheres                      =      69
 GePol: Number of exposed spheres                    =      68 ( 98.55%)
 GePol: Number of points                             =    4997
 GePol: Average weight of points                     =       0.13
 GePol: Minimum weight of points                     =   0.11D-11
 GePol: Maximum weight of points                     =    0.21501
 GePol: Number of points with low weight             =     333
 GePol: Fraction of low-weight points (<1% of avg)   =       6.66%
 GePol: Cavity surface area                          =    637.576 Ang**2
 GePol: Cavity volume                                =    779.574 Ang**3
 ------------------------------------------------------------------------------
 Atomic radii for non-electrostatic terms: SMD-CDS.
 ------------------------------------------------------------------------------
 PCM non-electrostatic energy =         0.0053480562 Hartrees.
 Nuclear repulsion after PCM non-electrostatic terms =    11669.5837777063 Hartrees.
 Leave Link  301 at Mon Apr 21 16:06:15 2025, MaxMem= 82678120448 cpu:               5.3 elap:               0.3
 (Enter /sysapps/ubuntu-applications/gaussian-new/avx/g16/l302.exe)
 NPDir=0 NMtPBC=     1 NCelOv=     1 NCel=       1 NClECP=     1 NCelD=      1
         NCelK=      1 NCelE2=     1 NClLst=     1 CellRange=     0.0.
 One-electron integrals computed using PRISM.
 One-electron integral symmetry used in STVInt
   1 Symmetry operations used in ECPInt.
 ECPInt:  NShTT=   77815 NPrTT=  297642 LenC2=   59340 LenP2D=  137028.
 LDataN:  DoStor=T MaxTD1= 9 Len=  602
 NBasis=   916 RedAO= T EigKep=  2.89D-04  NBF=   916
 NBsUse=   916 1.00D-06 EigRej= -1.00D+00 NBFU=   916
 Precomputing XC quadrature grid using
 IXCGrd= 4 IRadAn=           5 IRanWt=          -1 IRanGd=           0 AccXCQ= 0.00D+00.
 Defaulting to unpruned grid for atomic number  71.
[...]
     7 C(13)  Bbb     0.0000     0.000     0.000     0.000 -0.0000  1.0000  0.0000
              Bcc     0.0000     0.000     0.000     0.000  0.0000  0.0000  1.0000
 
              Baa     0.0000     0.000     0.000     0.000  1.0000  0.0000  0.0000
     8 C(13)  Bbb     0.0000     0.000     0.000     0.000 -0.0000  1.0000  0.0000
              Bcc     0.0000     0.000     0.000     0.000  0.0000  0.0000  1.0000
 
              Baa     0.0000     0.000     0.000     0.000  1.0000  0.0000  0.0000
     9 C(13)  Bbb     0.0000     0.000     0.000     0.000 -0.0000  1.0000  0.0000
              Bcc     0.0000     0.000     0.000     0.000  0.0000  0.0000  1.0000
 
              Baa     0.0000     0.000     0.000     0.000  1.0000  0.0000  0.0000
    10 H(1)   Bbb     0.0000     0.000     0.000     0.000 -0.0000  1.0000  0.0000
              Bcc     0.0000     0.000     0.000     0.000  0.0000  0.0000  1.0000
 
              Baa     0.0000     0.000     0.000     0.000  1.0000  0.0000  0.0000
    11 H(1)   Bbb     0.0000     0.000     0.000     0.000 -0.0000  1.0000  0.0000
              Bcc     0.0000     0.000     0.000     0.000  0.0000  0.0000  1.0000
 
              Baa     0.0000     0.000     0.000     0.000  1.0000  0.0000  0.0000
    12 H(1)   Bbb     0.0000     0.000     0.000     0.000 -0.0000  1.0000  0.0000
              Bcc     0.0000     0.000     0.000     0.000  0.0000  0.0000  1.0000
 
              Baa     0.0000     0.000     0.000     0.000  1.0000  0.0000  0.0000
    13 H(1)   Bbb     0.0000     0.000     0.000     0.000 -0.0000  1.0000  0.0000
              Bcc     0.0000     0.000     0.000     0.000  0.0000  0.0000  1.0000
 
              Baa     0.0000     0.000     0.000     0.000  1.0000  0.0000  0.0000
    14 H(1)   Bbb     0.0000     0.000     0.000     0.000 -0.0000  1.0000  0.0000
              Bcc     0.0000     0.000     0.000     0.000  0.0000  0.0000  1.0000
 
              Baa     0.0000    -0.000    -0.000    -0.000  1.0000  0.0000  0.0000
    15 O(17)  Bbb     0.0000    -0.000    -0.000    -0.000 -0.0000  1.0000  0.0000
              Bcc     0.0000    -0.000    -0.000    -0.000  0.0000  0.0000  1.0000
 
              Baa     0.0000    -0.000    -0.000    -0.000  1.0000  0.0000  0.0000
    16 O(17)  Bbb     0.0000    -0.000    -0.000    -0.000 -0.0000  1.0000  0.0000
              Bcc     0.0000    -0.000    -0.000    -0.000  0.0000  0.0000  1.0000
 
              Baa     0.0000    -0.000    -0.000    -0.000  1.0000  0.0000  0.0000
    17 O(17)  Bbb     0.0000    -0.000    -0.000    -0.000 -0.0000  1.0000  0.0000
              Bcc     0.0000    -0.000    -0.000    -0.000  0.0000  0.0000  1.0000
 
              Baa     0.0000    -0.000    -0.000    -0.000  1.0000  0.0000  0.0000
    18 O(17)  Bbb     0.0000    -0.000    -0.000    -0.000 -0.0000  1.0000  0.0000
              Bcc     0.0000    -0.000    -0.000    -0.000  0.0000  0.0000  1.0000
 
              Baa     0.0000     0.000     0.000     0.000  1.0000  0.0000  0.0000
    19 C(13)  Bbb     0.0000     0.000     0.000     0.000 -0.0000  1.0000  0.0000
              Bcc     0.0000     0.000     0.000     0.000  0.0000  0.0000  1.0000
 
              Baa     0.0000     0.000     0.000     0.000  1.0000  0.0000  0.0000
    20 C(13)  Bbb     0.0000     0.000     0.000     0.000 -0.0000  1.0000  0.0000
              Bcc     0.0000     0.000     0.000     0.000  0.0000  0.0000  1.0000
 
              Baa     0.0000     0.000     0.000     0.000  1.0000  0.0000  0.0000
    21 H(1)   Bbb     0.0000     0.000     0.000     0.000 -0.0000  1.0000  0.0000
              Bcc     0.0000     0.000     0.000     0.000  0.0000  0.0000  1.0000
 
              Baa     0.0000     0.000     0.000     0.000  1.0000  0.0000  0.0000
    22 H(1)   Bbb     0.0000     0.000     0.000     0.000 -0.0000  1.0000  0.0000
              Bcc     0.0000     0.000     0.000     0.000  0.0000  0.0000  1.0000
 
              Baa     0.0000     0.000     0.000     0.000  1.0000  0.0000  0.0000
    23 H(1)   Bbb     0.0000     0.000     0.000     0.000 -0.0000  1.0000  0.0000
              Bcc     0.0000     0.000     0.000     0.000  0.0000  0.0000  1.0000
 
              Baa     0.0000     0.000     0.000     0.000  1.0000  0.0000  0.0000
    24 H(1)   Bbb     0.0000     0.000     0.000     0.000 -0.0000  1.0000  0.0000
              Bcc     0.0000     0.000     0.000     0.000  0.0000  0.0000  1.0000
 
              Baa     0.0000     0.000     0.000     0.000  1.0000  0.0000  0.0000
    25 H(1)   Bbb     0.0000     0.000     0.000     0.000 -0.0000  1.0000  0.0000
              Bcc     0.0000     0.000     0.000     0.000  0.0000  0.0000  1.0000
 
              Baa     0.0000     0.000     0.000     0.000  1.0000  0.0000  0.0000
    26 H(1)   Bbb     0.0000     0.000     0.000     0.000 -0.0000  1.0000  0.0000
              Bcc     0.0000     0.000     0.000     0.000  0.0000  0.0000  1.0000
 
              Baa     0.0000    -0.000    -0.000    -0.000  1.0000  0.0000  0.0000
    27 O(17)  Bbb     0.0000    -0.000    -0.000    -0.000 -0.0000  1.0000  0.0000
              Bcc     0.0000    -0.000    -0.000    -0.000  0.0000  0.0000  1.0000
 
              Baa     0.0000    -0.000    -0.000    -0.000  1.0000  0.0000  0.0000
    28 O(17)  Bbb     0.0000    -0.000    -0.000    -0.000 -0.0000  1.0000  0.0000
              Bcc     0.0000    -0.000    -0.000    -0.000  0.0000  0.0000  1.0000
 
              Baa     0.0000    -0.000    -0.000    -0.000  1.0000  0.0000  0.0000
    29 O(17)  Bbb     0.0000    -0.000    -0.000    -0.000 -0.0000  1.0000  0.0000
              Bcc     0.0000    -0.000    -0.000    -0.000  0.0000  0.0000  1.0000
 
              Baa     0.0000     0.000     0.000     0.000  1.0000  0.0000  0.0000
    30 S(33)  Bbb     0.0000     0.000     0.000     0.000 -0.0000  1.0000  0.0000
              Bcc     0.0000     0.000     0.000     0.000  0.0000  0.0000  1.0000
 
              Baa     0.0000     0.000     0.000     0.000  1.0000  0.0000  0.0000
    31 S(33)  Bbb     0.0000     0.000     0.000     0.000 -0.0000  1.0000  0.0000
              Bcc     0.0000     0.000     0.000     0.000  0.0000  0.0000  1.0000
 
              Baa     0.0000     0.000     0.000     0.000  1.0000  0.0000  0.0000
    32 S(33)  Bbb     0.0000     0.000     0.000     0.000 -0.0000  1.0000  0.0000
              Bcc     0.0000     0.000     0.000     0.000  0.0000  0.0000  1.0000
 
              Baa     0.0000    -0.000    -0.000    -0.000  1.0000  0.0000  0.0000
    33 O(17)  Bbb     0.0000    -0.000    -0.000    -0.000 -0.0000  1.0000  0.0000
              Bcc     0.0000    -0.000    -0.000    -0.000  0.0000  0.0000  1.0000
 
              Baa     0.0000    -0.000    -0.000    -0.000  1.0000  0.0000  0.0000
    34 O(17)  Bbb     0.0000    -0.000    -0.000    -0.000 -0.0000  1.0000  0.0000
              Bcc     0.0000    -0.000    -0.000    -0.000  0.0000  0.0000  1.0000
 
              Baa     0.0000    -0.000    -0.000    -0.000  1.0000  0.0000  0.0000
    35 O(17)  Bbb     0.0000    -0.000    -0.000    -0.000 -0.0000  1.0000  0.0000
              Bcc     0.0000    -0.000    -0.000    -0.000  0.0000  0.0000  1.0000
 
              Baa     0.0000    -0.000    -0.000    -0.000  1.0000  0.0000  0.0000
    36 O(17)  Bbb     0.0000    -0.000    -0.000    -0.000 -0.0000  1.0000  0.0000
              Bcc     0.0000    -0.000    -0.000    -0.000  0.0000  0.0000  1.0000
 
              Baa     0.0000    -0.000    -0.000    -0.000  1.0000  0.0000  0.0000
    37 O(17)  Bbb     0.0000    -0.000    -0.000    -0.000 -0.0000  1.0000  0.0000
              Bcc     0.0000    -0.000    -0.000    -0.000  0.0000  0.0000  1.0000
 
              Baa     0.0000    -0.000    -0.000    -0.000  1.0000  0.0000  0.0000
    38 O(17)  Bbb     0.0000    -0.000    -0.000    -0.000 -0.0000  1.0000  0.0000
              Bcc     0.0000    -0.000    -0.000    -0.000  0.0000  0.0000  1.0000
 
              Baa     0.0000     0.000     0.000     0.000  1.0000  0.0000  0.0000
    39 C(13)  Bbb     0.0000     0.000     0.000     0.000 -0.0000  1.0000  0.0000
              Bcc     0.0000     0.000     0.000     0.000  0.0000  0.0000  1.0000
 
              Baa     0.0000     0.000     0.000     0.000  1.0000  0.0000  0.0000
    40 C(13)  Bbb     0.0000     0.000     0.000     0.000 -0.0000  1.0000  0.0000
              Bcc     0.0000     0.000     0.000     0.000  0.0000  0.0000  1.0000
 
              Baa     0.0000     0.000     0.000     0.000  1.0000  0.0000  0.0000
    41 C(13)  Bbb     0.0000     0.000     0.000     0.000 -0.0000  1.0000  0.0000
              Bcc     0.0000     0.000     0.000     0.000  0.0000  0.0000  1.0000
 
              Baa     0.0000     0.000     0.000     0.000  1.0000  0.0000  0.0000
    42 F(19)  Bbb     0.0000     0.000     0.000     0.000 -0.0000  1.0000  0.0000
              Bcc     0.0000     0.000     0.000     0.000  0.0000  0.0000  1.0000
 
              Baa     0.0000     0.000     0.000     0.000  1.0000  0.0000  0.0000
    43 F(19)  Bbb     0.0000     0.000     0.000     0.000 -0.0000  1.0000  0.0000
              Bcc     0.0000     0.000     0.000     0.000  0.0000  0.0000  1.0000
 
              Baa     0.0000     0.000     0.000     0.000  1.0000  0.0000  0.0000
    44 F(19)  Bbb     0.0000     0.000     0.000     0.000 -0.0000  1.0000  0.0000
              Bcc     0.0000     0.000     0.000     0.000  0.0000  0.0000  1.0000
 
              Baa     0.0000     0.000     0.000     0.000  1.0000  0.0000  0.0000
    45 F(19)  Bbb     0.0000     0.000     0.000     0.000 -0.0000  1.0000  0.0000
              Bcc     0.0000     0.000     0.000     0.000  0.0000  0.0000  1.0000
 
              Baa     0.0000     0.000     0.000     0.000  1.0000  0.0000  0.0000
    46 F(19)  Bbb     0.0000     0.000     0.000     0.000 -0.0000  1.0000  0.0000
              Bcc     0.0000     0.000     0.000     0.000  0.0000  0.0000  1.0000
 
              Baa     0.0000     0.000     0.000     0.000  1.0000  0.0000  0.0000
    47 F(19)  Bbb     0.0000     0.000     0.000     0.000 -0.0000  1.0000  0.0000
              Bcc     0.0000     0.000     0.000     0.000  0.0000  0.0000  1.0000
 
              Baa     0.0000     0.000     0.000     0.000  1.0000  0.0000  0.0000
    48 F(19)  Bbb     0.0000     0.000     0.000     0.000 -0.0000  1.0000  0.0000
              Bcc     0.0000     0.000     0.000     0.000  0.0000  0.0000  1.0000
 
              Baa     0.0000     0.000     0.000     0.000  1.0000  0.0000  0.0000
    49 F(19)  Bbb     0.0000     0.000     0.000     0.000 -0.0000  1.0000  0.0000
              Bcc     0.0000     0.000     0.000     0.000  0.0000  0.0000  1.0000
 
              Baa     0.0000     0.000     0.000     0.000  1.0000  0.0000  0.0000
    50 F(19)  Bbb     0.0000     0.000     0.000     0.000 -0.0000  1.0000  0.0000
              Bcc     0.0000     0.000     0.000     0.000  0.0000  0.0000  1.0000
 
              Baa     0.0000     0.000     0.000     0.000  1.0000  0.0000  0.0000
    51 C(13)  Bbb     0.0000     0.000     0.000     0.000 -0.0000  1.0000  0.0000
              Bcc     0.0000     0.000     0.000     0.000  0.0000  0.0000  1.0000
 
              Baa     0.0000     0.000     0.000     0.000  1.0000  0.0000  0.0000
    52 H(1)   Bbb     0.0000     0.000     0.000     0.000 -0.0000  1.0000  0.0000
              Bcc     0.0000     0.000     0.000     0.000  0.0000  0.0000  1.0000
 
              Baa     0.0000     0.000     0.000     0.000  1.0000  0.0000  0.0000
    53 C(13)  Bbb     0.0000     0.000     0.000     0.000 -0.0000  1.0000  0.0000
              Bcc     0.0000     0.000     0.000     0.000  0.0000  0.0000  1.0000
 
              Baa     0.0000     0.000     0.000     0.000  1.0000  0.0000  0.0000
    54 C(13)  Bbb     0.0000     0.000     0.000     0.000 -0.0000  1.0000  0.0000
              Bcc     0.0000     0.000     0.000     0.000  0.0000  0.0000  1.0000
 
              Baa     0.0000     0.000     0.000     0.000  1.0000  0.0000  0.0000
    55 C(13)  Bbb     0.0000     0.000     0.000     0.000 -0.0000  1.0000  0.0000
              Bcc     0.0000     0.000     0.000     0.000  0.0000  0.0000  1.0000
 
              Baa     0.0000     0.000     0.000     0.000  1.0000  0.0000  0.0000
    56 C(13)  Bbb     0.0000     0.000     0.000     0.000 -0.0000  1.0000  0.0000
              Bcc     0.0000     0.000     0.000     0.000  0.0000  0.0000  1.0000
 
              Baa     0.0000     0.000     0.000     0.000  1.0000  0.0000  0.0000
    57 C(13)  Bbb     0.0000     0.000     0.000     0.000 -0.0000  1.0000  0.0000
              Bcc     0.0000     0.000     0.000     0.000  0.0000  0.0000  1.0000
 
              Baa     0.0000     0.000     0.000     0.000  1.0000  0.0000  0.0000
    58 C(13)  Bbb     0.0000     0.000     0.000     0.000 -0.0000  1.0000  0.0000
              Bcc     0.0000     0.000     0.000     0.000  0.0000  0.0000  1.0000
 
              Baa     0.0000     0.000     0.000     0.000  1.0000  0.0000  0.0000
    59 H(1)   Bbb     0.0000     0.000     0.000     0.000 -0.0000  1.0000  0.0000
              Bcc     0.0000     0.000     0.000     0.000  0.0000  0.0000  1.0000
 
              Baa     0.0000     0.000     0.000     0.000  1.0000  0.0000  0.0000
    60 H(1)   Bbb     0.0000     0.000     0.000     0.000 -0.0000  1.0000  0.0000
              Bcc     0.0000     0.000     0.000     0.000  0.0000  0.0000  1.0000
 
              Baa     0.0000     0.000     0.000     0.000  1.0000  0.0000  0.0000
    61 H(1)   Bbb     0.0000     0.000     0.000     0.000 -0.0000  1.0000  0.0000
              Bcc     0.0000     0.000     0.000     0.000  0.0000  0.0000  1.0000
 
              Baa     0.0000     0.000     0.000     0.000  1.0000  0.0000  0.0000
    62 N(14)  Bbb     0.0000     0.000     0.000     0.000 -0.0000  1.0000  0.0000
              Bcc     0.0000     0.000     0.000     0.000  0.0000  0.0000  1.0000
 
              Baa     0.0000     0.000     0.000     0.000  1.0000  0.0000  0.0000
    63 N(14)  Bbb     0.0000     0.000     0.000     0.000 -0.0000  1.0000  0.0000
              Bcc     0.0000     0.000     0.000     0.000  0.0000  0.0000  1.0000
 
              Baa     0.0000     0.000     0.000     0.000  1.0000  0.0000  0.0000
    64 N(14)  Bbb     0.0000     0.000     0.000     0.000 -0.0000  1.0000  0.0000
              Bcc     0.0000     0.000     0.000     0.000  0.0000  0.0000  1.0000
 
              Baa     0.0000     0.000     0.000     0.000  1.0000  0.0000  0.0000
    65 N(14)  Bbb     0.0000     0.000     0.000     0.000 -0.0000  1.0000  0.0000
              Bcc     0.0000     0.000     0.000     0.000  0.0000  0.0000  1.0000
 
              Baa     0.0000     0.000     0.000     0.000  1.0000  0.0000  0.0000
    66 C(13)  Bbb     0.0000     0.000     0.000     0.000 -0.0000  1.0000  0.0000
              Bcc     0.0000     0.000     0.000     0.000  0.0000  0.0000  1.0000
 
              Baa     0.0000     0.000     0.000     0.000  1.0000  0.0000  0.0000
    67 H(1)   Bbb     0.0000     0.000     0.000     0.000 -0.0000  1.0000  0.0000
              Bcc     0.0000     0.000     0.000     0.000  0.0000  0.0000  1.0000
 
              Baa     0.0000     0.000     0.000     0.000  1.0000  0.0000  0.0000
    68 Lu(175 Bbb     0.0000     0.000     0.000     0.000 -0.0000  1.0000  0.0000
              Bcc     0.0000     0.000     0.000     0.000  0.0000  0.0000  1.0000
 
              Baa     0.0000    -0.000    -0.000    -0.000  1.0000  0.0000  0.0000
    69 O(17)  Bbb     0.0000    -0.000    -0.000    -0.000 -0.0000  1.0000  0.0000
              Bcc     0.0000    -0.000    -0.000    -0.000  0.0000  0.0000  1.0000
 

 ---------------------------------------------------------------------------------

 No NMR shielding tensors so no spin-rotation constants.
 Leave Link  601 at Tue Apr 22 01:29:44 2025, MaxMem= 82678120448 cpu:              81.9 elap:               3.7
 (Enter /sysapps/ubuntu-applications/gaussian-new/avx/g16/l9999.exe)
 1\1\GINC-ACIDSMN005\FOpt\UMN15\GenECP\C22H16F9Lu1N4O14S3\SGOZEM\22-Apr
 -2025\0\\#P UMN15/genecp scf=(maxcyc=500) opt scrf=(smd,solvent=DiChlo
 roEthane)\\Opt\\0,1\C,5.655739909,-1.5051010584,0.2997944523\C,6.80231
 31698,-1.5292415995,-0.5209707337\C,8.012599477,-1.9614731125,0.008457
 1676\C,8.0786002316,-2.3570872047,1.3491106923\C,6.9425248039,-2.32288
 05919,2.17231651\C,5.7277109264,-1.8976571317,1.6558672553\C,2.0770938
 728,-0.680235346,0.2987803823\C,1.5736990038,-0.012390426,-0.848259267
 6\C,1.2893982525,-0.8967914002,1.473169307\H,6.7258195274,-1.200543123
 4,-1.5600959051\H,8.9072773628,-1.9875376048,-0.6157003952\H,9.0316712
 894,-2.6927463873,1.7642117657\H,7.0168546272,-2.626859283,3.21781924\
 H,4.8296052841,-1.848105889,2.2764385719\O,0.096723966,-0.5254162074,1
 .5916508296\O,0.3629772579,0.2490654721,-1.0276859141\O,2.4697622347,0
 .3609834413,-1.7467723204\O,1.9037617555,-1.4953875654,2.4642963333\C,
 1.9944553919,1.1040749981,-2.8759504731\C,1.2058287074,-1.6083633966,3
 .705607055\H,2.8855078768,1.4513384095,-3.4088706718\H,1.3844747107,1.
 9548026769,-2.5397006135\H,1.3859149584,0.4606531014,-3.5248258656\H,1
 .8760610021,-2.1460112769,4.3837262616\H,0.2702416164,-2.1680950043,3.
 5728639406\H,0.9856959464,-0.6097230733,4.1070667754\O,-2.9206001095,0
 .2369775908,1.800935233\O,-2.542479167,1.1408833877,-1.3409633463\O,-0
 .4091183792,-2.4781970693,-0.3408952495\S,-1.2725768535,-2.8344185842,
 -1.5017064179\S,-3.6031721368,-1.0860898351,1.9476626863\S,-2.0327599,
 2.4198012721,-0.7543279501\O,-2.0910291721,-1.6135191301,-1.7874791245
 \O,-1.9531016428,-4.1037036145,-1.481617305\O,-2.8453774693,-2.0108042
 394,1.0513835044\O,-3.9366704773,-1.5368529946,3.2712673168\O,-1.25412
 1247,2.0391266175,0.454389097\O,-1.4404628858,3.3692248566,-1.66853879
 32\C,-3.5391525146,3.258893964,-0.1049869211\C,-5.1777200503,-0.822453
 034,1.0351214192\C,-0.1133467728,-2.9426033582,-2.9303258934\F,-3.1612
 030159,4.2098326565,0.7319821103\F,-4.3136968871,2.396182463,0.5229243
 535\F,-4.2011747271,3.7947550831,-1.1131715655\F,-4.8725031987,-0.4553
 650446,-0.2023179211\F,-5.8779874234,0.1295893917,1.6186612494\F,-5.87
 52821722,-1.9397709742,1.0066634007\F,0.7326898914,-1.9231258014,-2.91
 80284906\F,-0.8044856972,-2.9228296045,-4.0536055258\F,0.5661484951,-4
 .070795143,-2.8456926324\C,4.428053549,-1.0464753486,-0.270531965\H,4.
 3771078663,-0.6796309807,-1.3014307625\C,4.198877494,2.1426375752,0.50
 78881605\C,5.4187440548,1.9847329045,-0.1825063255\C,3.9754662254,1.54
 61256734,1.7626929436\C,1.1066967955,4.0507829677,-0.0586491358\C,2.73
 80994904,4.440079227,-1.7363736666\C,1.4732743001,4.7269556676,-1.2145
 753664\H,0.1352864286,4.1897624764,0.4131518695\H,3.101346116,4.909280
 3166,-2.6536218786\H,0.8086599004,5.4356677001,-1.7074003747\N,6.43757
 9638,1.806415962,-0.7230456125\N,3.7850157511,1.0304168817,2.793588721
 8\N,3.2215728471,2.9798299,-0.0574514791\N,3.5870633622,3.5938103362,-
 1.1748864437\C,2.0002770484,3.1524603264,0.5052041985\H,1.7831326232,2
 .5707657785,1.4028645892\Lu,-1.4776025835,-0.3527627321,0.0642670448\O
 ,3.3792754444,-1.0757709046,0.4468538685\\Version=ES64L-G16RevA.03\Sta
 te=1-A\HF=-5446.2105819\S2=0.\S2-1=0.\S2A=0.\RMSD=4.982e-09\RMSF=6.274
 e-06\Dipole=6.0934844,2.24589,-0.9976975\Quadrupole=1.4699689,3.373932
 ,-4.8439009,-31.9459296,-0.4033564,-12.6014482\PG=C01 [X(C22H16F9Lu1N4
 O14S3)]\\@


 THIS CURIOUS WORLD WHICH WE INHABIT IS MORE WONDERFUL THAN IT IS CONVENIENT;
 MORE BEAUTIFUL THAN IT IS USEFUL;
 IT IS MORE TO BE ADMIRED THAN IT IS TO BE USED.

                                                                 -- THOREAU
 Job cpu time:       8 days 23 hours 13 minutes 24.1 seconds.
 Elapsed time:       0 days  9 hours 23 minutes  0.9 seconds.
 File lengths (MBytes):  RWF=   1684 Int=      0 D2E=      0 Chk=     92 Scr=      8
 Normal termination of Gaussian 16 at Tue Apr 22 01:29:44 2025.
