 Entering Gaussian System, Link 0=/sysapps/ubuntu-applications/gaussian-new/avx/g16//g16
 Input=TS-maj.in
 Output=TS-maj.log
 Initial command:
 /sysapps/ubuntu-applications/gaussian-new/avx/g16/l1.exe "/data/temp-scratch/sgozem/303819/Gau-2016385.inp" -scrdir="/data/temp-scratch/sgozem/303819/"
 Entering Link 1 = /sysapps/ubuntu-applications/gaussian-new/avx/g16/l1.exe PID=   2016387.
  
 Copyright (c) 1988,1990,1992,1993,1995,1998,2003,2009,2016,
            Gaussian, Inc.  All Rights Reserved.
  
 This is part of the Gaussian(R) 16 program.  It is based on
 the Gaussian(R) 09 system (copyright 2009, Gaussian, Inc.),
 the Gaussian(R) 03 system (copyright 2003, Gaussian, Inc.),
 the Gaussian(R) 98 system (copyright 1998, Gaussian, Inc.),
 the Gaussian(R) 94 system (copyright 1995, Gaussian, Inc.),
 the Gaussian 92(TM) system (copyright 1992, Gaussian, Inc.),
 the Gaussian 90(TM) system (copyright 1990, Gaussian, Inc.),
 the Gaussian 88(TM) system (copyright 1988, Gaussian, Inc.),
 the Gaussian 86(TM) system (copyright 1986, Carnegie Mellon
 University), and the Gaussian 82(TM) system (copyright 1983,
 Carnegie Mellon University). Gaussian is a federally registered
 trademark of Gaussian, Inc.
  
 This software contains proprietary and confidential information,
 including trade secrets, belonging to Gaussian, Inc.
  
 This software is provided under written license and may be
 used, copied, transmitted, or stored only in accord with that
 written license.
  
 The following legend is applicable only to US Government
 contracts under FAR:
  
                    RESTRICTED RIGHTS LEGEND
  
 Use, reproduction and disclosure by the US Government is
 subject to restrictions as set forth in subparagraphs (a)
 and (c) of the Commercial Computer Software - Restricted
 Rights clause in FAR 52.227-19.
  
 Gaussian, Inc.
 340 Quinnipiac St., Bldg. 40, Wallingford CT 06492
  
  
 ---------------------------------------------------------------
 Warning -- This program may not be used in any manner that
 competes with the business of Gaussian, Inc. or will provide
 assistance to any competitor of Gaussian, Inc.  The licensee
 of this program is prohibited from giving any competitor of
 Gaussian, Inc. access to this program.  By using this program,
 the user acknowledges that Gaussian, Inc. is engaged in the
 business of creating and licensing software in the field of
 computational chemistry and represents and warrants to the
 licensee that it is not a competitor of Gaussian, Inc. and that
 it will not use this program in any manner prohibited above.
 ---------------------------------------------------------------
  

 Cite this work as:
 Gaussian 16, Revision A.03,
 M. J. Frisch, G. W. Trucks, H. B. Schlegel, G. E. Scuseria, 
 M. A. Robb, J. R. Cheeseman, G. Scalmani, V. Barone, 
 G. A. Petersson, H. Nakatsuji, X. Li, M. Caricato, A. V. Marenich, 
 J. Bloino, B. G. Janesko, R. Gomperts, B. Mennucci, H. P. Hratchian, 
 J. V. Ortiz, A. F. Izmaylov, J. L. Sonnenberg, D. Williams-Young, 
 F. Ding, F. Lipparini, F. Egidi, J. Goings, B. Peng, A. Petrone, 
 T. Henderson, D. Ranasinghe, V. G. Zakrzewski, J. Gao, N. Rega, 
 G. Zheng, W. Liang, M. Hada, M. Ehara, K. Toyota, R. Fukuda, 
 J. Hasegawa, M. Ishida, T. Nakajima, Y. Honda, O. Kitao, H. Nakai, 
 T. Vreven, K. Throssell, J. A. Montgomery, Jr., J. E. Peralta, 
 F. Ogliaro, M. J. Bearpark, J. J. Heyd, E. N. Brothers, K. N. Kudin, 
 V. N. Staroverov, T. A. Keith, R. Kobayashi, J. Normand, 
 K. Raghavachari, A. P. Rendell, J. C. Burant, S. S. Iyengar, 
 J. Tomasi, M. Cossi, J. M. Millam, M. Klene, C. Adamo, R. Cammi, 
 J. W. Ochterski, R. L. Martin, K. Morokuma, O. Farkas, 
 J. B. Foresman, and D. J. Fox, Gaussian, Inc., Wallingford CT, 2016.
 
 ******************************************
 Gaussian 16:  ES64L-G16RevA.03 25-Dec-2016
                30-Apr-2025 
 ******************************************
 %chk=TS-maj.chk
 %mem=92Gb
 %nprocshared=24
 Will use up to   24 processors via shared memory.
 ----------------------------------------------------------------------
 #P UMN15/genecp scf=(maxcyc=500) irc=(maxpoints=100,recorrect=never,ca
 lcfc,maxcycles=500,nogradstop) scrf=(smd,solvent=DiChloroEthane)
 ----------------------------------------------------------------------
 1/6=500,10=4,18=10,26=3,38=1,42=100,44=3,108=-1,131=1,172=1/1,23;
 2/12=2,17=6,18=5,29=1,40=1/2;
 3/5=7,11=2,16=1,17=8,25=1,30=1,70=32201,71=2,72=10,74=-73,116=2,140=1/1,2,3;
 4//1;
 5/5=2,7=500,38=5,53=10/2;
 8/6=4,10=90,11=11/1;
 11/6=1,8=1,9=11,15=111,16=1/1,2,10;
 10/6=1,13=1/2;
 6/7=2,8=2,9=2,10=2,28=1/1;
 7/10=1,18=20,25=1/1,2,3,16;
 1/6=500,10=4,18=10,26=3,42=100,44=3,108=-1,131=1/23(2);
 2/29=1/2;
 99/5=20/99;
 2/29=1/2;
 3/5=7,6=1,11=2,16=1,17=8,25=1,30=1,70=32205,71=2,72=10,74=-73,82=7,116=2,140=1/1,2,3;
 4/5=5,16=3,69=1/1;
 5/5=2,7=500,38=5,53=10/2;
 8/6=4,10=90,11=11/1;
 11/6=1,8=1,9=11,15=111,16=1/1,2,10;
 10/6=1,13=1/2;
 7/10=1,18=20,25=1/1,2,3,16;
 1/6=500,18=10,26=3,42=100,44=3,108=-1,131=1/23(-8);
 2/29=1/2;
 6/7=2,8=2,9=2,10=2,19=2,28=1/1;
 99/5=20,9=1/99;
 Leave Link    1 at Wed Apr 30 07:40:04 2025, MaxMem= 12348030976 cpu:               2.7 elap:               0.1
 (Enter /sysapps/ubuntu-applications/gaussian-new/avx/g16/l101.exe)
 ---
 Opt
 ---
 Symbolic Z-matrix:
 Charge =  0 Multiplicity = 1
 C                     5.70109  -0.70958   0.15919 
 C                     6.78732  -0.71386  -0.72433 
 C                     7.88327  -1.54159  -0.47786 
 C                     7.89239  -2.37196   0.64592 
 C                     6.80468  -2.37431   1.52302 
 C                     5.7083   -1.54445   1.28381 
 C                     2.09937   0.13992   0.36258 
 C                     1.46703   0.24592  -0.94311 
 C                     1.26751  -0.17242   1.51341 
 H                     6.76898  -0.07036  -1.60835 
 H                     8.7279   -1.54448  -1.17007 
 H                     8.74799  -3.02395   0.83578 
 H                     6.80769  -3.02795   2.39796 
 H                     4.84938  -1.54557   1.95854 
 O                     0.04758   0.09323   1.57671 
 O                     0.24791   0.40756  -1.12928 
 O                     2.31193   0.28728  -1.9464 
 O                     1.91874  -0.62365   2.55025 
 C                     1.80389   0.62966  -3.24275 
 C                     1.16748  -0.88317   3.74463 
 H                     2.65929   0.58911  -3.92411 
 H                     1.37989   1.64389  -3.21891 
 H                     1.02917  -0.08021  -3.55402 
 H                     1.88676  -1.25877   4.47853 
 H                     0.39455  -1.63701   3.54372 
 H                     0.6984    0.04158   4.10528 
 O                    -3.27473   0.52549   1.49056 
 O                    -2.72226   0.92764  -1.57252 
 O                    -0.21888  -2.2075    0.08597 
 S                    -1.07257  -2.90695  -0.91641 
 S                    -3.70062  -0.82721   1.97316 
 S                    -2.48632   2.33121  -1.10066 
 O                    -2.00144  -1.8566   -1.4504 
 O                    -1.64337  -4.1802   -0.56211 
 O                    -2.65964  -1.75957   1.44281 
 O                    -4.1057   -0.96162   3.34518 
 O                    -1.6307    2.20565   0.11195 
 O                    -2.09013   3.30282  -2.09061 
 C                    -4.15191   2.89112  -0.46686 
 C                    -5.16347  -1.18304   0.91644 
 C                     0.05874  -3.26244  -2.32587 
 F                    -4.00701   3.40297   0.73831 
 F                    -4.98817   1.87319  -0.42278 
 F                    -4.62448   3.81133  -1.28507 
 F                    -4.78601  -1.0608   -0.34815 
 F                    -6.12274  -0.31927   1.1803 
 F                    -5.58984  -2.40965   1.13656 
 F                     0.84217  -2.21747  -2.54647 
 F                    -0.65391  -3.51268  -3.40621 
 F                     0.80198  -4.3095   -2.02791 
 C                     4.53927   0.2157   -0.09682 
 H                     4.43997   0.41878  -1.17476 
 C                     4.74533   1.6249    0.5603 
 C                     5.94485   2.2923    0.02606 
 C                     4.87421   1.4674    2.02191 
 C                     1.23536   2.9134    0.53005 
 C                     2.50308   3.57972  -1.40245 
 C                     1.2772    3.58763  -0.6487 
 H                     0.34865   2.8844    1.16143 
 H                     2.57676   4.07893  -2.37092 
 H                     0.40997   4.13316  -1.02484 
 N                     6.91398   2.77191  -0.38316 
 N                     4.96428   1.29109   3.16137 
 N                     3.54658   2.4249    0.23643 
 N                     3.58971   3.01369  -0.96686 
 C                     2.38996   2.14743   0.91398 
 H                     2.52997   1.8688    1.96271 
 Lu                   -1.55684  -0.18321   0.07301 
 O                     3.37983  -0.37539   0.44588 
 
 ITRead=  0  0  0  0  0  0  0  0  0  0  0  0  0  0  0  0  0  0  0  0
 ITRead=  0  0  0  0  0  0  0  0  0  0  0  0  0  0  0  0  0  0  0  0
 ITRead=  0  0  0  0  0  0  0  0  0  0  0  0  0  0  0  0  0  0  0  0
 ITRead=  0  0  0  0  0  0  0  0  0
 MicOpt= -1 -1 -1 -1 -1 -1 -1 -1 -1 -1 -1 -1 -1 -1 -1 -1 -1 -1 -1 -1
 MicOpt= -1 -1 -1 -1 -1 -1 -1 -1 -1 -1 -1 -1 -1 -1 -1 -1 -1 -1 -1 -1
 MicOpt= -1 -1 -1 -1 -1 -1 -1 -1 -1 -1 -1 -1 -1 -1 -1 -1 -1 -1 -1 -1
 MicOpt= -1 -1 -1 -1 -1 -1 -1 -1 -1
 NAtoms=     69 NQM=       69 NQMF=       0 NMMI=      0 NMMIF=      0
                NMic=       0 NMicF=      0.
                    Isotopes and Nuclear Properties:
 (Nuclear quadrupole moments (NQMom) in fm**2, nuclear magnetic moments (NMagM)
  in nuclear magnetons)

  Atom         1           2           3           4           5           6           7           8           9          10
 IAtWgt=          12          12          12          12          12          12          12          12          12           1
 AtmWgt=  12.0000000  12.0000000  12.0000000  12.0000000  12.0000000  12.0000000  12.0000000  12.0000000  12.0000000   1.0078250
 NucSpn=           0           0           0           0           0           0           0           0           0           1
 AtZEff=  -0.0000000  -0.0000000  -0.0000000  -0.0000000  -0.0000000  -0.0000000  -0.0000000  -0.0000000  -0.0000000  -0.0000000
 NQMom=    0.0000000   0.0000000   0.0000000   0.0000000   0.0000000   0.0000000   0.0000000   0.0000000   0.0000000   0.0000000
 NMagM=    0.0000000   0.0000000   0.0000000   0.0000000   0.0000000   0.0000000   0.0000000   0.0000000   0.0000000   2.7928460
 AtZNuc=   6.0000000   6.0000000   6.0000000   6.0000000   6.0000000   6.0000000   6.0000000   6.0000000   6.0000000   1.0000000

  Atom        11          12          13          14          15          16          17          18          19          20
 IAtWgt=           1           1           1           1          16          16          16          16          12          12
 AtmWgt=   1.0078250   1.0078250   1.0078250   1.0078250  15.9949146  15.9949146  15.9949146  15.9949146  12.0000000  12.0000000
 NucSpn=           1           1           1           1           0           0           0           0           0           0
 AtZEff=  -0.0000000  -0.0000000  -0.0000000  -0.0000000  -0.0000000  -0.0000000  -0.0000000  -0.0000000  -0.0000000  -0.0000000
 NQMom=    0.0000000   0.0000000   0.0000000   0.0000000   0.0000000   0.0000000   0.0000000   0.0000000   0.0000000   0.0000000
 NMagM=    2.7928460   2.7928460   2.7928460   2.7928460   0.0000000   0.0000000   0.0000000   0.0000000   0.0000000   0.0000000
 AtZNuc=   1.0000000   1.0000000   1.0000000   1.0000000   8.0000000   8.0000000   8.0000000   8.0000000   6.0000000   6.0000000

  Atom        21          22          23          24          25          26          27          28          29          30
 IAtWgt=           1           1           1           1           1           1          16          16          16          32
 AtmWgt=   1.0078250   1.0078250   1.0078250   1.0078250   1.0078250   1.0078250  15.9949146  15.9949146  15.9949146  31.9720718
 NucSpn=           1           1           1           1           1           1           0           0           0           0
 AtZEff=  -0.0000000  -0.0000000  -0.0000000  -0.0000000  -0.0000000  -0.0000000  -0.0000000  -0.0000000  -0.0000000  -0.0000000
 NQMom=    0.0000000   0.0000000   0.0000000   0.0000000   0.0000000   0.0000000   0.0000000   0.0000000   0.0000000   0.0000000
 NMagM=    2.7928460   2.7928460   2.7928460   2.7928460   2.7928460   2.7928460   0.0000000   0.0000000   0.0000000   0.0000000
 AtZNuc=   1.0000000   1.0000000   1.0000000   1.0000000   1.0000000   1.0000000   8.0000000   8.0000000   8.0000000  16.0000000

  Atom        31          32          33          34          35          36          37          38          39          40
 IAtWgt=          32          32          16          16          16          16          16          16          12          12
 AtmWgt=  31.9720718  31.9720718  15.9949146  15.9949146  15.9949146  15.9949146  15.9949146  15.9949146  12.0000000  12.0000000
 NucSpn=           0           0           0           0           0           0           0           0           0           0
 AtZEff=  -0.0000000  -0.0000000  -0.0000000  -0.0000000  -0.0000000  -0.0000000  -0.0000000  -0.0000000  -0.0000000  -0.0000000
 NQMom=    0.0000000   0.0000000   0.0000000   0.0000000   0.0000000   0.0000000   0.0000000   0.0000000   0.0000000   0.0000000
 NMagM=    0.0000000   0.0000000   0.0000000   0.0000000   0.0000000   0.0000000   0.0000000   0.0000000   0.0000000   0.0000000
 AtZNuc=  16.0000000  16.0000000   8.0000000   8.0000000   8.0000000   8.0000000   8.0000000   8.0000000   6.0000000   6.0000000

  Atom        41          42          43          44          45          46          47          48          49          50
 IAtWgt=          12          19          19          19          19          19          19          19          19          19
 AtmWgt=  12.0000000  18.9984032  18.9984032  18.9984032  18.9984032  18.9984032  18.9984032  18.9984032  18.9984032  18.9984032
 NucSpn=           0           1           1           1           1           1           1           1           1           1
 AtZEff=  -0.0000000  -0.0000000  -0.0000000  -0.0000000  -0.0000000  -0.0000000  -0.0000000  -0.0000000  -0.0000000  -0.0000000
 NQMom=    0.0000000   0.0000000   0.0000000   0.0000000   0.0000000   0.0000000   0.0000000   0.0000000   0.0000000   0.0000000
 NMagM=    0.0000000   2.6288670   2.6288670   2.6288670   2.6288670   2.6288670   2.6288670   2.6288670   2.6288670   2.6288670
 AtZNuc=   6.0000000   9.0000000   9.0000000   9.0000000   9.0000000   9.0000000   9.0000000   9.0000000   9.0000000   9.0000000

  Atom        51          52          53          54          55          56          57          58          59          60
 IAtWgt=          12           1          12          12          12          12          12          12           1           1
 AtmWgt=  12.0000000   1.0078250  12.0000000  12.0000000  12.0000000  12.0000000  12.0000000  12.0000000   1.0078250   1.0078250
 NucSpn=           0           1           0           0           0           0           0           0           1           1
 AtZEff=  -0.0000000  -0.0000000  -0.0000000  -0.0000000  -0.0000000  -0.0000000  -0.0000000  -0.0000000  -0.0000000  -0.0000000
 NQMom=    0.0000000   0.0000000   0.0000000   0.0000000   0.0000000   0.0000000   0.0000000   0.0000000   0.0000000   0.0000000
 NMagM=    0.0000000   2.7928460   0.0000000   0.0000000   0.0000000   0.0000000   0.0000000   0.0000000   2.7928460   2.7928460
 AtZNuc=   6.0000000   1.0000000   6.0000000   6.0000000   6.0000000   6.0000000   6.0000000   6.0000000   1.0000000   1.0000000

  Atom        61          62          63          64          65          66          67          68          69
 IAtWgt=           1          14          14          14          14          12           1         175          16
 AtmWgt=   1.0078250  14.0030740  14.0030740  14.0030740  14.0030740  12.0000000   1.0078250 174.9409000  15.9949146
 NucSpn=           1           2           2           2           2           0           1           7           0
 AtZEff=  -0.0000000  -0.0000000  -0.0000000  -0.0000000  -0.0000000  -0.0000000  -0.0000000  -0.0000000  -0.0000000
 NQMom=    0.0000000   2.0440000   2.0440000   2.0440000   2.0440000   0.0000000   0.0000000 349.0000000   0.0000000
 NMagM=    2.7928460   0.4037610   0.4037610   0.4037610   0.4037610   0.0000000   2.7928460   2.2327000   0.0000000
 AtZNuc=   1.0000000   7.0000000   7.0000000   7.0000000   7.0000000   6.0000000   1.0000000  71.0000000   8.0000000
 Leave Link  101 at Wed Apr 30 07:40:05 2025, MaxMem= 12348030976 cpu:              10.7 elap:               0.5
 (Enter /sysapps/ubuntu-applications/gaussian-new/avx/g16/l123.exe)
 IRC-IRC-IRC-IRC-IRC-IRC-IRC-IRC-IRC-IRC-IRC-IRC-IRC-IRC-IRC-IRC-IRC-IRC
 ------------------------------------------------------------------------
 INPUT DATA FOR L123
 ------------------------------------------------------------------------
 GENERAL PARAMETERS:
 Follow reaction path in both directions.
 Maximum points per path      = 100
 Step size                    =   0.100 bohr
 Integration scheme           = HPC                                 
    Redo corrector integration= Never                               
    DWI Weight Power          =  2
    DWI will use Hessian update vectors when possible.
 Initial Hessian              = CalcFC
 Hessian evaluation           = All updating
 Hessian updating method      = Bofill                              
 ------------------------------------------------------------------------
 IRC-IRC-IRC-IRC-IRC-IRC-IRC-IRC-IRC-IRC-IRC-IRC-IRC-IRC-IRC-IRC-IRC-IRC
 Leave Link  123 at Wed Apr 30 07:40:05 2025, MaxMem= 12348030976 cpu:               0.5 elap:               0.1
 (Enter /sysapps/ubuntu-applications/gaussian-new/avx/g16/l202.exe)
 Symmetry turned off by external request.
 Stoichiometry    C22H16F9LuN4O14S3
 Framework group  C1[X(C22H16F9LuN4O14S3)]
 Deg. of freedom   201
 Full point group                 C1      NOp   1
                          Input orientation:                          
 ---------------------------------------------------------------------
 Center     Atomic      Atomic             Coordinates (Angstroms)
 Number     Number       Type             X           Y           Z
 ---------------------------------------------------------------------
      1          6           0        5.701085   -0.709576    0.159191
      2          6           0        6.787322   -0.713859   -0.724331
      3          6           0        7.883273   -1.541591   -0.477864
      4          6           0        7.892391   -2.371959    0.645924
      5          6           0        6.804677   -2.374311    1.523024
      6          6           0        5.708301   -1.544449    1.283812
      7          6           0        2.099368    0.139917    0.362579
      8          6           0        1.467028    0.245924   -0.943111
      9          6           0        1.267505   -0.172416    1.513405
     10          1           0        6.768975   -0.070356   -1.608346
     11          1           0        8.727904   -1.544478   -1.170067
     12          1           0        8.747990   -3.023951    0.835776
     13          1           0        6.807692   -3.027947    2.397964
     14          1           0        4.849376   -1.545567    1.958540
     15          8           0        0.047583    0.093227    1.576705
     16          8           0        0.247907    0.407562   -1.129280
     17          8           0        2.311934    0.287283   -1.946397
     18          8           0        1.918742   -0.623651    2.550253
     19          6           0        1.803888    0.629657   -3.242751
     20          6           0        1.167481   -0.883171    3.744631
     21          1           0        2.659289    0.589105   -3.924108
     22          1           0        1.379886    1.643886   -3.218907
     23          1           0        1.029175   -0.080209   -3.554015
     24          1           0        1.886755   -1.258772    4.478532
     25          1           0        0.394552   -1.637006    3.543720
     26          1           0        0.698399    0.041576    4.105278
     27          8           0       -3.274734    0.525493    1.490563
     28          8           0       -2.722255    0.927642   -1.572519
     29          8           0       -0.218881   -2.207502    0.085967
     30         16           0       -1.072569   -2.906946   -0.916411
     31         16           0       -3.700622   -0.827213    1.973163
     32         16           0       -2.486317    2.331210   -1.100657
     33          8           0       -2.001438   -1.856604   -1.450397
     34          8           0       -1.643372   -4.180199   -0.562110
     35          8           0       -2.659639   -1.759573    1.442811
     36          8           0       -4.105702   -0.961622    3.345181
     37          8           0       -1.630698    2.205646    0.111951
     38          8           0       -2.090126    3.302819   -2.090609
     39          6           0       -4.151912    2.891123   -0.466863
     40          6           0       -5.163465   -1.183040    0.916435
     41          6           0        0.058737   -3.262439   -2.325869
     42          9           0       -4.007013    3.402970    0.738314
     43          9           0       -4.988168    1.873190   -0.422783
     44          9           0       -4.624483    3.811329   -1.285065
     45          9           0       -4.786010   -1.060797   -0.348154
     46          9           0       -6.122736   -0.319274    1.180303
     47          9           0       -5.589841   -2.409647    1.136556
     48          9           0        0.842165   -2.217473   -2.546467
     49          9           0       -0.653910   -3.512678   -3.406207
     50          9           0        0.801981   -4.309497   -2.027908
     51          6           0        4.539274    0.215703   -0.096817
     52          1           0        4.439971    0.418783   -1.174757
     53          6           0        4.745325    1.624897    0.560303
     54          6           0        5.944854    2.292295    0.026058
     55          6           0        4.874214    1.467400    2.021914
     56          6           0        1.235363    2.913404    0.530052
     57          6           0        2.503084    3.579720   -1.402449
     58          6           0        1.277197    3.587630   -0.648697
     59          1           0        0.348654    2.884395    1.161425
     60          1           0        2.576761    4.078934   -2.370919
     61          1           0        0.409974    4.133159   -1.024843
     62          7           0        6.913976    2.771908   -0.383158
     63          7           0        4.964275    1.291089    3.161366
     64          7           0        3.546582    2.424896    0.236425
     65          7           0        3.589712    3.013691   -0.966856
     66          6           0        2.389962    2.147430    0.913981
     67          1           0        2.529973    1.868802    1.962714
     68         71           0       -1.556842   -0.183213    0.073006
     69          8           0        3.379827   -0.375388    0.445876
 ---------------------------------------------------------------------
 Rotational constants (GHZ):           0.0808223           0.0346296           0.0306334
 Leave Link  202 at Wed Apr 30 07:40:05 2025, MaxMem= 12348030976 cpu:               0.3 elap:               0.0
 (Enter /sysapps/ubuntu-applications/gaussian-new/avx/g16/l301.exe)
 General basis read from cards:  (5D, 7F)
 Centers:      10     11     12     13     14     21     22     23     24     25
 Centers:      26     52     59     60     61     67
 S 3 1.00
     Exponent=  1.3010701000D+01 Coefficients=  1.9682158000D-02
     Exponent=  1.9622572000D+00 Coefficients=  1.3796524000D-01
     Exponent=  4.4453796000D-01 Coefficients=  4.7831935000D-01
 S 1 1.00
     Exponent=  1.2194962000D-01 Coefficients=  1.0000000000D+00
 P 1 1.00
     Exponent=  8.0000000000D-01 Coefficients=  1.0000000000D+00
 ****
 Centers:       1      2      3      4      5      6      7      8      9     19
 Centers:      20     39     40     41     51     53     54     55     56     57
 Centers:      58     66
 S 5 1.00
     Exponent=  1.2384016938D+03 Coefficients=  5.4568832082D-03
     Exponent=  1.8629004992D+02 Coefficients=  4.0638409211D-02
     Exponent=  4.2251176346D+01 Coefficients=  1.8025593888D-01
     Exponent=  1.1676557932D+01 Coefficients=  4.6315121755D-01
     Exponent=  3.5930506482D+00 Coefficients=  4.4087173314D-01
 S 1 1.00
     Exponent=  4.0245147363D-01 Coefficients=  1.0000000000D+00
 S 1 1.00
     Exponent=  1.3090182668D-01 Coefficients=  1.0000000000D+00
 P 3 1.00
     Exponent=  9.4680970621D+00 Coefficients=  3.8387871728D-02
     Exponent=  2.0103545142D+00 Coefficients=  2.1117025112D-01
     Exponent=  5.4771004707D-01 Coefficients=  5.1328172114D-01
 P 1 1.00
     Exponent=  1.5268613795D-01 Coefficients=  1.0000000000D+00
 D 1 1.00
     Exponent=  8.0000000000D-01 Coefficients=  1.0000000000D+00
 ****
 Centers:      62     63     64     65
 S 5 1.00
     Exponent=  1.7128415853D+03 Coefficients= -5.3934125305D-03
     Exponent=  2.5764812677D+02 Coefficients= -4.0221581118D-02
     Exponent=  5.8458245853D+01 Coefficients= -1.7931144990D-01
     Exponent=  1.6198367905D+01 Coefficients= -4.6376317823D-01
     Exponent=  5.0052600809D+00 Coefficients= -4.4171422662D-01
 S 1 1.00
     Exponent=  5.8731856571D-01 Coefficients=  1.0000000000D+00
 S 1 1.00
     Exponent=  1.8764592253D-01 Coefficients=  1.0000000000D+00
 P 3 1.00
     Exponent=  1.3571470233D+01 Coefficients= -4.0072398852D-02
     Exponent=  2.9257372874D+00 Coefficients= -2.1807045028D-01
     Exponent=  7.9927750754D-01 Coefficients= -5.1294466049D-01
 P 1 1.00
     Exponent=  2.1954348034D-01 Coefficients=  1.0000000000D+00
 D 1 1.00
     Exponent=  1.0000000000D+00 Coefficients=  1.0000000000D+00
 ****
 Centers:      15     16     17     18     27     28     29     33     34     35
 Centers:      36     37     38     69
 S 5 1.00
     Exponent=  2.2661767785D+03 Coefficients= -5.3431809926D-03
     Exponent=  3.4087010191D+02 Coefficients= -3.9890039230D-02
     Exponent=  7.7363135167D+01 Coefficients= -1.7853911985D-01
     Exponent=  2.1479644940D+01 Coefficients= -4.6427684959D-01
     Exponent=  6.6589433124D+00 Coefficients= -4.4309745172D-01
 S 1 1.00
     Exponent=  8.0975975668D-01 Coefficients=  1.0000000000D+00
 S 1 1.00
     Exponent=  2.5530772234D-01 Coefficients=  1.0000000000D+00
 P 3 1.00
     Exponent=  1.7721504317D+01 Coefficients=  4.3394573193D-02
     Exponent=  3.8635505440D+00 Coefficients=  2.3094120765D-01
     Exponent=  1.0480920883D+00 Coefficients=  5.1375311064D-01
 P 1 1.00
     Exponent=  2.7641544411D-01 Coefficients=  1.0000000000D+00
 D 1 1.00
     Exponent=  1.2000000000D+00 Coefficients=  1.0000000000D+00
 ****
 Centers:      42     43     44     45     46     47     48     49     50
 S 5 1.00
     Exponent=  2.8948325990D+03 Coefficients= -5.3408255515D-03
     Exponent=  4.3541939120D+02 Coefficients= -3.9904258866D-02
     Exponent=  9.8843328866D+01 Coefficients= -1.7912768038D-01
     Exponent=  2.7485198001D+01 Coefficients= -4.6758090825D-01
     Exponent=  8.5405498171D+00 Coefficients= -4.4653131020D-01
 S 1 1.00
     Exponent=  1.0654578038D+00 Coefficients=  1.0000000000D+00
 S 1 1.00
     Exponent=  3.3247346748D-01 Coefficients=  1.0000000000D+00
 P 3 1.00
     Exponent=  2.2696633924D+01 Coefficients= -4.5212874436D-02
     Exponent=  4.9872339257D+00 Coefficients= -2.3754317067D-01
     Exponent=  1.3491613954D+00 Coefficients= -5.1287353587D-01
 P 1 1.00
     Exponent=  3.4829881977D-01 Coefficients=  1.0000000000D+00
 D 1 1.00
     Exponent=  1.4000000000D+00 Coefficients=  1.0000000000D+00
 ****
 Centers:      30     31     32
 S 5 1.00
     Exponent=  9.1849303010D+03 Coefficients= -2.2294387756D-03
     Exponent=  1.3815105503D+03 Coefficients= -1.6683029937D-02
     Exponent=  3.1387147580D+02 Coefficients= -7.5262436116D-02
     Exponent=  8.8053870623D+01 Coefficients= -1.9376827038D-01
     Exponent=  2.7039914905D+01 Coefficients= -1.7718020803D-01
 S 3 1.00
     Exponent=  4.5648731303D+01 Coefficients= -1.0736062573D-01
     Exponent=  4.9664522326D+00 Coefficients=  6.5066293018D-01
     Exponent=  2.0116242047D+00 Coefficients=  5.9712155354D-01
 S 1 1.00
     Exponent=  3.5661077013D-01 Coefficients=  1.0000000000D+00
 S 1 1.00
     Exponent=  1.3507221477D-01 Coefficients=  1.0000000000D+00
 P 5 1.00
     Exponent=  2.6198233439D+02 Coefficients= -9.2729929822D-03
     Exponent=  6.1306894736D+01 Coefficients= -6.6547669241D-02
     Exponent=  1.9103729887D+01 Coefficients= -2.4828595903D-01
     Exponent=  6.6567720378D+00 Coefficients= -4.8703847402D-01
     Exponent=  2.3959635161D+00 Coefficients= -3.9337850312D-01
 P 1 1.00
     Exponent=  6.1776161679D-01 Coefficients=  1.0000000000D+00
 P 1 1.00
     Exponent=  1.6993376871D-01 Coefficients=  1.0000000000D+00
 D 1 1.00
     Exponent=  5.5000000000D-01 Coefficients=  1.0000000000D+00
 ****
 Centers:      68
 S 5 1.00
     Exponent=  9.5169767000D+04 Coefficients=  2.2000000000D-05
     Exponent=  1.5488403000D+04 Coefficients=  1.4500000000D-04
     Exponent=  3.7762335000D+03 Coefficients=  6.5100000000D-04
     Exponent=  1.0790501000D+03 Coefficients=  2.0380000000D-03
     Exponent=  2.6895380000D+02 Coefficients=  5.1270000000D-03
 S 1 1.00
     Exponent=  6.3467900000D+01 Coefficients=  1.0000000000D+00
 S 1 1.00
     Exponent=  4.5133200000D+01 Coefficients=  1.0000000000D+00
 S 1 1.00
     Exponent=  2.1456800000D+01 Coefficients=  1.0000000000D+00
 S 1 1.00
     Exponent=  5.3483000000D+00 Coefficients=  1.0000000000D+00
 S 1 1.00
     Exponent=  2.6778000000D+00 Coefficients=  1.0000000000D+00
 S 1 1.00
     Exponent=  1.0287000000D+00 Coefficients=  1.0000000000D+00
 S 1 1.00
     Exponent=  4.4080000000D-01 Coefficients=  1.0000000000D+00
 S 1 1.00
     Exponent=  7.9100000000D-02 Coefficients=  1.0000000000D+00
 S 1 1.00
     Exponent=  3.1300000000D-02 Coefficients=  1.0000000000D+00
 P 3 1.00
     Exponent=  1.2333733920D+01 Coefficients= -1.5313031066D-01
     Exponent=  1.1080331415D+01 Coefficients= -2.0300664852D-01
     Exponent=  2.0341747228D+00 Coefficients= -1.9458361263D-01
 P 6 1.00
     Exponent=  1.5005317313D+03 Coefficients= -1.0192569555D-03
     Exponent=  3.8239748937D+02 Coefficients= -5.9476212135D-03
     Exponent=  1.3299969628D+02 Coefficients= -1.6265160929D-02
     Exponent=  4.6110032419D+01 Coefficients= -3.5623845839D-02
     Exponent=  1.5583529011D+01 Coefficients=  2.3709171074D-01
     Exponent=  5.7856677022D+00 Coefficients= -3.0670977844D-01
 P 1 1.00
     Exponent=  3.7823361008D+00 Coefficients=  1.0000000000D+00
 P 1 1.00
     Exponent=  1.3682592248D+00 Coefficients=  1.0000000000D+00
 P 1 1.00
     Exponent=  5.7288205601D-01 Coefficients=  1.0000000000D+00
 P 1 1.00
     Exponent=  2.2793165135D-01 Coefficients=  1.0000000000D+00
 P 1 1.00
     Exponent=  8.1403917986D-02 Coefficients=  1.0000000000D+00
 P 1 1.00
     Exponent=  2.9091071778D-02 Coefficients=  1.0000000000D+00
 D 6 1.00
     Exponent=  4.8452750000D+02 Coefficients=  2.2860000000D-03
     Exponent=  1.4666550000D+02 Coefficients=  1.8629000000D-02
     Exponent=  5.6377900000D+01 Coefficients=  7.4088000000D-02
     Exponent=  2.3671100000D+01 Coefficients=  1.6155400000D-01
     Exponent=  9.4401000000D+00 Coefficients=  3.0809100000D-01
     Exponent=  4.3712000000D+00 Coefficients=  4.4833400000D-01
 D 1 1.00
     Exponent=  1.9580000000D+00 Coefficients=  1.0000000000D+00
 D 1 1.00
     Exponent=  7.2720000000D-01 Coefficients=  1.0000000000D+00
 D 1 1.00
     Exponent=  2.4600000000D-01 Coefficients=  1.0000000000D+00
 D 1 1.00
     Exponent=  7.4400000000D-02 Coefficients=  1.0000000000D+00
 F 5 1.00
     Exponent=  1.7515590000D+02 Coefficients=  4.1020000000D-03
     Exponent=  6.2890900000D+01 Coefficients=  3.9086000000D-02
     Exponent=  2.8362400000D+01 Coefficients=  1.4704400000D-01
     Exponent=  1.3247800000D+01 Coefficients=  2.7109200000D-01
     Exponent=  6.1440000000D+00 Coefficients=  3.4566500000D-01
 F 1 1.00
     Exponent=  2.7623000000D+00 Coefficients=  1.0000000000D+00
 F 1 1.00
     Exponent=  1.1574000000D+00 Coefficients=  1.0000000000D+00
 F 1 1.00
     Exponent=  4.2440000000D-01 Coefficients=  1.0000000000D+00
 G 1 1.00
     Exponent=  7.0090000000D-01 Coefficients=  1.0000000000D+00
 ****
 ======================================================================================================
                                       Pseudopotential Parameters
 ======================================================================================================
  Center     Atomic      Valence      Angular      Power
  Number     Number     Electrons     Momentum     of R      Exponent        Coefficient   SO-Coeffient
 ======================================================================================================
    1          6
                                   No pseudopotential on this center.
    2          6
                                   No pseudopotential on this center.
    3          6
                                   No pseudopotential on this center.
    4          6
                                   No pseudopotential on this center.
    5          6
                                   No pseudopotential on this center.
    6          6
                                   No pseudopotential on this center.
    7          6
                                   No pseudopotential on this center.
    8          6
                                   No pseudopotential on this center.
    9          6
                                   No pseudopotential on this center.
   10          1
                                   No pseudopotential on this center.
   11          1
                                   No pseudopotential on this center.
   12          1
                                   No pseudopotential on this center.
   13          1
                                   No pseudopotential on this center.
   14          1
                                   No pseudopotential on this center.
   15          8
                                   No pseudopotential on this center.
   16          8
                                   No pseudopotential on this center.
   17          8
                                   No pseudopotential on this center.
   18          8
                                   No pseudopotential on this center.
   19          6
                                   No pseudopotential on this center.
   20          6
                                   No pseudopotential on this center.
   21          1
                                   No pseudopotential on this center.
   22          1
                                   No pseudopotential on this center.
   23          1
                                   No pseudopotential on this center.
   24          1
                                   No pseudopotential on this center.
   25          1
                                   No pseudopotential on this center.
   26          1
                                   No pseudopotential on this center.
   27          8
                                   No pseudopotential on this center.
   28          8
                                   No pseudopotential on this center.
   29          8
                                   No pseudopotential on this center.
   30         16
                                   No pseudopotential on this center.
   31         16
                                   No pseudopotential on this center.
   32         16
                                   No pseudopotential on this center.
   33          8
                                   No pseudopotential on this center.
   34          8
                                   No pseudopotential on this center.
   35          8
                                   No pseudopotential on this center.
   36          8
                                   No pseudopotential on this center.
   37          8
                                   No pseudopotential on this center.
   38          8
                                   No pseudopotential on this center.
   39          6
                                   No pseudopotential on this center.
   40          6
                                   No pseudopotential on this center.
   41          6
                                   No pseudopotential on this center.
   42          9
                                   No pseudopotential on this center.
   43          9
                                   No pseudopotential on this center.
   44          9
                                   No pseudopotential on this center.
   45          9
                                   No pseudopotential on this center.
   46          9
                                   No pseudopotential on this center.
   47          9
                                   No pseudopotential on this center.
   48          9
                                   No pseudopotential on this center.
   49          9
                                   No pseudopotential on this center.
   50          9
                                   No pseudopotential on this center.
   51          6
                                   No pseudopotential on this center.
   52          1
                                   No pseudopotential on this center.
   53          6
                                   No pseudopotential on this center.
   54          6
                                   No pseudopotential on this center.
   55          6
                                   No pseudopotential on this center.
   56          6
                                   No pseudopotential on this center.
   57          6
                                   No pseudopotential on this center.
   58          6
                                   No pseudopotential on this center.
   59          1
                                   No pseudopotential on this center.
   60          1
                                   No pseudopotential on this center.
   61          1
                                   No pseudopotential on this center.
   62          7
                                   No pseudopotential on this center.
   63          7
                                   No pseudopotential on this center.
   64          7
                                   No pseudopotential on this center.
   65          7
                                   No pseudopotential on this center.
   66          6
                                   No pseudopotential on this center.
   67          1
                                   No pseudopotential on this center.
   68         71           43
                                      H and up 
                                                     2        1.0000000        0.00000000    0.00000000
                                      S - H
                                                     2       35.1620970      989.99558400    0.00000000
                                      P - H
                                                     2       19.4644020      278.86565200    0.00000000
                                      D - H
                                                     2       10.0068650       71.00917800    0.00000000
                                      F - H
                                                     2       23.5179320      -47.40589000    0.00000000
                                      G - H
                                                     2       29.4122380      -35.55714600    0.00000000
   69          8
                                   No pseudopotential on this center.
 ======================================================================================================
 Ernie: Thresh=  0.10000D-02 Tol=  0.10000D-05 Strict=F.
   916 basis functions,  1662 primitive gaussians,   991 cartesian basis functions
   230 alpha electrons      230 beta electrons
       nuclear repulsion energy     11778.5388078076 Hartrees.
 IExCor= 7252 DFT=T Ex+Corr=MN15 ExCW=0 ScaHFX=  0.440000
 ScaDFX=  1.000000  1.000000  1.000000  1.000000 ScalE2=  1.000000  1.000000
 IRadAn=      5 IRanWt=     -1 IRanGd=            0 ICorTp=0 IEmpDi=  4
 NAtoms=   69 NActive=   69 NUniq=   69 SFac= 1.00D+00 NAtFMM=   60 NAOKFM=T Big=T
 Integral buffers will be    131072 words long.
 Raffenetti 2 integral format.
 Two-electron integral symmetry is turned off.
 Force inversion solution in PCM.
 ------------------------------------------------------------------------------
 Polarizable Continuum Model (PCM)
 =================================
 Model                : PCM.
 Atomic radii         : SMD-Coulomb.
 Polarization charges : Total charges.
 Charge compensation  : None.
 Solution method      : Matrix inversion.
 Cavity type          : VdW (van der Waals Surface) (Alpha=1.000).
 Cavity algorithm     : GePol (No added spheres)
                        Default sphere list used, NSphG=   69.
                        Lebedev-Laikov grids with approx.  5.0 points / Ang**2.
                        Smoothing algorithm: York/Karplus (Gamma=1.0000).
                        Polarization charges: spherical gaussians, with
                                              point-specific exponents (IZeta= 3).
                        Self-potential: point-specific (ISelfS= 7).
                        Self-field    : sphere-specific E.n sum rule (ISelfD= 2).
 1st derivatives      : Analytical E(r).r(x)/FMM algorithm (CHGder, D1EAlg=3).
                        Cavity 1st derivative terms included.
 2nd derivatives      : Analytical E(r).r(xy)/FMM algorithm (CHGder, D2EAlg=3).
                        Cavity 2nd derivative terms included.
 Solvent              : DiChloroEthane, Eps=  10.125000 Eps(inf)=   2.087447
 ------------------------------------------------------------------------------
 GePol: Number of generator spheres                  =      69
 GePol: Total number of spheres                      =      69
 GePol: Number of exposed spheres                    =      68 ( 98.55%)
 GePol: Number of points                             =    4766
 GePol: Average weight of points                     =       0.13
 GePol: Minimum weight of points                     =   0.30D-10
 GePol: Maximum weight of points                     =    0.21501
 GePol: Number of points with low weight             =     273
 GePol: Fraction of low-weight points (<1% of avg)   =       5.73%
 GePol: Cavity surface area                          =    626.705 Ang**2
 GePol: Cavity volume                                =    768.249 Ang**3
 ------------------------------------------------------------------------------
 Atomic radii for non-electrostatic terms: SMD-CDS.
 ------------------------------------------------------------------------------
 PCM non-electrostatic energy =         0.0064069589 Hartrees.
 Nuclear repulsion after PCM non-electrostatic terms =    11778.5452147665 Hartrees.
 Leave Link  301 at Wed Apr 30 07:40:05 2025, MaxMem= 12348030976 cpu:               4.9 elap:               0.2
 (Enter /sysapps/ubuntu-applications/gaussian-new/avx/g16/l302.exe)
 NPDir=0 NMtPBC=     1 NCelOv=     1 NCel=       1 NClECP=     1 NCelD=      1
         NCelK=      1 NCelE2=     1 NClLst=     1 CellRange=     0.0.
 One-electron integrals computed using PRISM.
   1 Symmetry operations used in ECPInt.
 ECPInt:  NShTT=   77815 NPrTT=  297642 LenC2=   59710 LenP2D=  138460.
 LDataN:  DoStor=T MaxTD1= 9 Len=  602
 NBasis=   916 RedAO= T EigKep=  2.36D-04  NBF=   916
 NBsUse=   916 1.00D-06 EigRej= -1.00D+00 NBFU=   916
 Precomputing XC quadrature grid using
 IXCGrd= 4 IRadAn=           5 IRanWt=          -1 IRanGd=           0 AccXCQ= 0.00D+00.
 Defaulting to unpruned grid for atomic number  71.
 Generated NRdTot=       0 NPtTot=           0 NUsed=           0 NTot=          32
 NSgBfM=   938   938   938   938   938 MxSgAt=    69 MxSgA2=    69.
 Leave Link  302 at Wed Apr 30 07:40:08 2025, MaxMem= 12348030976 cpu:              57.2 elap:               2.5
 (Enter /sysapps/ubuntu-applications/gaussian-new/avx/g16/l303.exe)
 DipDrv:  MaxL=1.
 Leave Link  303 at Wed Apr 30 07:40:09 2025, MaxMem= 12348030976 cpu:               5.6 elap:               0.3
 (Enter /sysapps/ubuntu-applications/gaussian-new/avx/g16/l401.exe)
 ExpMin= 2.91D-02 ExpMax= 9.52D+04 ExpMxC= 1.55D+04 IAcc=3 IRadAn=         5 AccDes= 0.00D+00
 Harris functional with IExCor= 1009 and IRadAn=       5 diagonalized for initial guess.
 HarFok:  IExCor= 1009 AccDes= 0.00D+00 IRadAn=         5 IDoV= 1 UseB2=F ITyADJ=14
 ICtDFT=  3500011 ScaDFX=  1.000000  1.000000  1.000000  1.000000
 Defaulting to unpruned grid for atomic number  71.
 FoFCou: FMM=F IPFlag=           0 FMFlag=      100000 FMFlg1=        2001
         NFxFlg=           0 DoJE=T BraDBF=F KetDBF=T FulRan=T
         wScrn=  0.000000 ICntrl=       500 IOpCl=  0 I1Cent=   200000004 NGrid=           0
         NMat0=    1 NMatS0=      1 NMatT0=    0 NMatD0=    1 NMtDS0=    0 NMtDT0=    0
 Symmetry not used in FoFCou.
 Harris En= -5446.91401457118    
 JPrj=0 DoOrth=F DoCkMO=F.
 Initial guess <Sx>= 0.0000 <Sy>= 0.0000 <Sz>= 0.0000 <S**2>=-0.0000 S=-0.0000
 Leave Link  401 at Wed Apr 30 07:40:15 2025, MaxMem= 12348030976 cpu:             143.7 elap:               6.1
 (Enter /sysapps/ubuntu-applications/gaussian-new/avx/g16/l502.exe)
 Two-electron integral symmetry not used.
 UHF open shell SCF:
 Using DIIS extrapolation, IDIIS=  1040.
 NGot= 12348030976 LenX= 12346034798 LenY= 12345051726
 Requested convergence on RMS density matrix=1.00D-08 within 500 cycles.
 Requested convergence on MAX density matrix=1.00D-06.
 Requested convergence on             energy=1.00D-06.
 No special actions if energy rises.
 Fock matrices will be formed incrementally for  20 cycles.

 Cycle   1  Pass 1  IDiag  1:
 FoFJK:  IHMeth= 1 ICntrl=       0 DoSepK=F KAlg= 0 I1Cent=           0 FoldK=F
 IRaf= 850000000 NMat=       1 IRICut=       1 DoRegI=T DoRafI=F ISym2E= 0 IDoP0=0 IntGTp=1.
 FoFCou: FMM=T IPFlag=           0 FMFlag=      100000 FMFlg1=        2001
         NFxFlg=           0 DoJE=F BraDBF=F KetDBF=F FulRan=T
         wScrn=  0.000000 ICntrl=         0 IOpCl=  1 I1Cent=           0 NGrid=           0
         NMat0=    1 NMatS0=      1 NMatT0=    0 NMatD0=    1 NMtDS0=    0 NMtDT0=    0
 Symmetry not used in FoFCou.
 FMM levels:  10  Number of levels for PrismC:   9
 Defaulting to unpruned grid for atomic number  71.
 Defaulting to unpruned grid for atomic number  71.
 Defaulting to unpruned grid for atomic number  71.
 Defaulting to unpruned grid for atomic number  71.
 Defaulting to unpruned grid for atomic number  71.
 Defaulting to unpruned grid for atomic number  71.
 Defaulting to unpruned grid for atomic number  71.
 Defaulting to unpruned grid for atomic number  71.
 Defaulting to unpruned grid for atomic number  71.
 Defaulting to unpruned grid for atomic number  71.
 Defaulting to unpruned grid for atomic number  71.
 Defaulting to unpruned grid for atomic number  71.
 Defaulting to unpruned grid for atomic number  71.
 Defaulting to unpruned grid for atomic number  71.
 Defaulting to unpruned grid for atomic number  71.
 Defaulting to unpruned grid for atomic number  71.
 Defaulting to unpruned grid for atomic number  71.
 Defaulting to unpruned grid for atomic number  71.
 Defaulting to unpruned grid for atomic number  71.
 Defaulting to unpruned grid for atomic number  71.
 Defaulting to unpruned grid for atomic number  71.
 Defaulting to unpruned grid for atomic number  71.
 Defaulting to unpruned grid for atomic number  71.
 Defaulting to unpruned grid for atomic number  71.
 Inv3:  Mode=1 IEnd=    68144268.
 Iteration    1 A*A^-1 deviation from unit magnitude is 5.11D-15 for   4741.
 Iteration    1 A*A^-1 deviation from orthogonality  is 4.19D-15 for   4741   3673.
 Iteration    1 A^-1*A deviation from unit magnitude is 5.11D-15 for   4741.
 Iteration    1 A^-1*A deviation from orthogonality  is 2.34D-13 for   1468   1378.
 E= -5441.23712754818    
 DIIS: error= 1.83D-01 at cycle   1 NSaved=   1.
 NSaved= 1 IEnMin= 1 EnMin= -5441.23712754818     IErMin= 1 ErrMin= 1.83D-01
 ErrMax= 1.83D-01  0.00D+00 EMaxC= 1.00D-01 BMatC= 1.56D+02 BMatP= 1.56D+02
 IDIUse=3 WtCom= 0.00D+00 WtEn= 1.00D+00
 Coeff-Com:  0.100D+01
 Coeff-En:   0.100D+01
 Coeff:      0.100D+01
 Gap=     0.226 Goal=   None    Shift=    0.000
 Gap=     0.226 Goal=   None    Shift=    0.000
 GapD=    0.226 DampG=1.000 DampE=0.125 DampFc=0.1250 IDamp=-1.
 Damping current iteration by 1.25D-01
 RMSDP=1.12D-02 MaxDP=1.51D+00              OVMax= 9.86D-01

 Cycle   2  Pass 1  IDiag  1:
 RMSU=  1.39D-03    CP:  9.94D-01
 E= -5441.94789021365     Delta-E=       -0.710762665469 Rises=F Damp=T
 DIIS: error= 9.54D-02 at cycle   2 NSaved=   2.
 NSaved= 2 IEnMin= 2 EnMin= -5441.94789021365     IErMin= 2 ErrMin= 9.54D-02
 ErrMax= 9.54D-02  0.00D+00 EMaxC= 1.00D-01 BMatC= 3.24D+01 BMatP= 1.56D+02
 IDIUse=3 WtCom= 4.55D-02 WtEn= 9.54D-01
 Coeff-Com: -0.620D+00 0.162D+01
 Coeff-En:   0.376D+00 0.624D+00
 Coeff:      0.330D+00 0.670D+00
 Gap=    -0.054 Goal=   None    Shift=    0.000
 Gap=    -0.054 Goal=   None    Shift=    0.000
 RMSDP=3.25D-03 MaxDP=6.10D-01 DE=-7.11D-01 OVMax= 8.95D-01

 Cycle   3  Pass 1  IDiag  1:
 RMSU=  3.24D-03    CP:  9.74D-01  9.96D-01
 E= -5440.47620675446     Delta-E=        1.471683459187 Rises=F Damp=F
 DIIS: error= 1.94D-01 at cycle   3 NSaved=   3.
 NSaved= 3 IEnMin= 2 EnMin= -5441.94789021365     IErMin= 2 ErrMin= 9.54D-02
 ErrMax= 1.94D-01  0.00D+00 EMaxC= 1.00D-01 BMatC= 1.58D+02 BMatP= 3.24D+01
 IDIUse=2 WtCom= 0.00D+00 WtEn= 1.00D+00
 EnCoef did   100 forward-backward iterations
 Coeff-En:   0.514D+00 0.233D-01 0.463D+00
 Coeff:      0.514D+00 0.233D-01 0.463D+00
 Gap=     0.511 Goal=   None    Shift=    0.000
 Gap=     0.511 Goal=   None    Shift=    0.000
 RMSDP=2.41D-03 MaxDP=3.51D-01 DE= 1.47D+00 OVMax= 2.15D-01

 Cycle   4  Pass 1  IDiag  1:
 RMSU=  1.37D-03    CP:  9.77D-01  5.65D-01  4.18D-01
 E= -5445.86851231010     Delta-E=       -5.392305555641 Rises=F Damp=F
 DIIS: error= 3.48D-02 at cycle   4 NSaved=   4.
 NSaved= 4 IEnMin= 4 EnMin= -5445.86851231010     IErMin= 4 ErrMin= 3.48D-02
 ErrMax= 3.48D-02  0.00D+00 EMaxC= 1.00D-01 BMatC= 5.67D+00 BMatP= 3.24D+01
 IDIUse=3 WtCom= 6.52D-01 WtEn= 3.48D-01
 Coeff-Com:  0.342D+00-0.172D+00 0.159D+00 0.671D+00
 Coeff-En:   0.000D+00 0.000D+00 0.000D+00 0.100D+01
 Coeff:      0.223D+00-0.112D+00 0.103D+00 0.785D+00
 Gap=     0.631 Goal=   None    Shift=    0.000
 Gap=     0.631 Goal=   None    Shift=    0.000
 RMSDP=1.04D-03 MaxDP=8.62D-02 DE=-5.39D+00 OVMax= 1.06D-01

 Cycle   5  Pass 1  IDiag  1:
 RMSU=  5.81D-04    CP:  9.85D-01  5.44D-01  5.14D-01  4.15D-01
 E= -5446.01810543599     Delta-E=       -0.149593125885 Rises=F Damp=F
 DIIS: error= 2.30D-02 at cycle   5 NSaved=   5.
 NSaved= 5 IEnMin= 5 EnMin= -5446.01810543599     IErMin= 5 ErrMin= 2.30D-02
 ErrMax= 2.30D-02  0.00D+00 EMaxC= 1.00D-01 BMatC= 2.83D+00 BMatP= 5.67D+00
 IDIUse=3 WtCom= 7.70D-01 WtEn= 2.30D-01
 Coeff-Com:  0.104D+00-0.123D+00 0.160D-01 0.526D+00 0.477D+00
 Coeff-En:   0.000D+00 0.000D+00 0.000D+00 0.377D+00 0.623D+00
 Coeff:      0.801D-01-0.948D-01 0.123D-01 0.492D+00 0.511D+00
 Gap=     0.185 Goal=   None    Shift=    0.000
 Gap=     0.185 Goal=   None    Shift=    0.000
 RMSDP=5.03D-04 MaxDP=5.45D-02 DE=-1.50D-01 OVMax= 4.78D-02

 Cycle   6  Pass 1  IDiag  1:
 RMSU=  2.74D-04    CP:  9.81D-01  5.11D-01  4.68D-01  5.90D-01  4.76D-01
 E= -5446.18869202664     Delta-E=       -0.170586590648 Rises=F Damp=F
 DIIS: error= 7.39D-03 at cycle   6 NSaved=   6.
 NSaved= 6 IEnMin= 6 EnMin= -5446.18869202664     IErMin= 6 ErrMin= 7.39D-03
 ErrMax= 7.39D-03  0.00D+00 EMaxC= 1.00D-01 BMatC= 2.58D-01 BMatP= 2.83D+00
 IDIUse=3 WtCom= 9.26D-01 WtEn= 7.39D-02
 Coeff-Com:  0.251D-01-0.584D-01-0.101D-01 0.105D+00 0.264D+00 0.675D+00
 Coeff-En:   0.000D+00 0.000D+00 0.000D+00 0.000D+00 0.849D-01 0.915D+00
 Coeff:      0.232D-01-0.541D-01-0.938D-02 0.974D-01 0.251D+00 0.692D+00
 Gap=     0.186 Goal=   None    Shift=    0.000
 Gap=     0.186 Goal=   None    Shift=    0.000
 RMSDP=1.47D-04 MaxDP=1.44D-02 DE=-1.71D-01 OVMax= 1.79D-02

 Cycle   7  Pass 1  IDiag  1:
 RMSU=  8.25D-05    CP:  9.82D-01  5.36D-01  4.80D-01  5.96D-01  5.37D-01
                    CP:  6.30D-01
 E= -5446.20265756132     Delta-E=       -0.013965534687 Rises=F Damp=F
 DIIS: error= 3.04D-03 at cycle   7 NSaved=   7.
 NSaved= 7 IEnMin= 7 EnMin= -5446.20265756132     IErMin= 7 ErrMin= 3.04D-03
 ErrMax= 3.04D-03  0.00D+00 EMaxC= 1.00D-01 BMatC= 4.14D-02 BMatP= 2.58D-01
 IDIUse=3 WtCom= 9.70D-01 WtEn= 3.04D-02
 Coeff-Com:  0.188D-01-0.429D-01-0.844D-02 0.100D-02 0.974D-01 0.385D+00
 Coeff-Com:  0.549D+00
 Coeff-En:   0.000D+00 0.000D+00 0.000D+00 0.000D+00 0.000D+00 0.000D+00
 Coeff-En:   0.100D+01
 Coeff:      0.182D-01-0.416D-01-0.818D-02 0.971D-03 0.944D-01 0.374D+00
 Coeff:      0.563D+00
 Gap=     0.185 Goal=   None    Shift=    0.000
 Gap=     0.185 Goal=   None    Shift=    0.000
 RMSDP=7.14D-05 MaxDP=6.76D-03 DE=-1.40D-02 OVMax= 1.14D-02

 Cycle   8  Pass 1  IDiag  1:
 RMSU=  4.30D-05    CP:  9.81D-01  5.24D-01  4.78D-01  5.82D-01  5.52D-01
                    CP:  7.23D-01  4.87D-01
 E= -5446.20462889105     Delta-E=       -0.001971329730 Rises=F Damp=F
 DIIS: error= 2.93D-03 at cycle   8 NSaved=   8.
 NSaved= 8 IEnMin= 8 EnMin= -5446.20462889105     IErMin= 8 ErrMin= 2.93D-03
 ErrMax= 2.93D-03  0.00D+00 EMaxC= 1.00D-01 BMatC= 3.37D-02 BMatP= 4.14D-02
 IDIUse=3 WtCom= 9.71D-01 WtEn= 2.93D-02
 Coeff-Com:  0.181D-01-0.330D-01-0.507D-02-0.429D-01-0.119D-01 0.667D-01
 Coeff-Com:  0.415D+00 0.593D+00
 Coeff-En:   0.000D+00 0.000D+00 0.000D+00 0.000D+00 0.000D+00 0.000D+00
 Coeff-En:   0.115D+00 0.885D+00
 Coeff:      0.175D-01-0.321D-01-0.492D-02-0.416D-01-0.115D-01 0.647D-01
 Coeff:      0.406D+00 0.602D+00
 Gap=     0.185 Goal=   None    Shift=    0.000
 Gap=     0.185 Goal=   None    Shift=    0.000
 RMSDP=2.65D-05 MaxDP=3.17D-03 DE=-1.97D-03 OVMax= 4.91D-03

 Cycle   9  Pass 1  IDiag  1:
 RMSU=  1.25D-05    CP:  9.82D-01  5.25D-01  4.78D-01  5.80D-01  5.52D-01
                    CP:  7.25D-01  6.55D-01  5.75D-01
 E= -5446.20561531377     Delta-E=       -0.000986422720 Rises=F Damp=F
 DIIS: error= 2.37D-03 at cycle   9 NSaved=   9.
 NSaved= 9 IEnMin= 9 EnMin= -5446.20561531377     IErMin= 9 ErrMin= 2.37D-03
 ErrMax= 2.37D-03  0.00D+00 EMaxC= 1.00D-01 BMatC= 2.06D-02 BMatP= 3.37D-02
 IDIUse=3 WtCom= 9.76D-01 WtEn= 2.37D-02
 Coeff-Com:  0.156D-01-0.248D-01-0.299D-02-0.321D-01-0.401D-01-0.104D+00
 Coeff-Com: -0.243D-01 0.141D+00 0.107D+01
 Coeff-En:   0.000D+00 0.000D+00 0.000D+00 0.000D+00 0.000D+00 0.000D+00
 Coeff-En:   0.000D+00 0.000D+00 0.100D+01
 Coeff:      0.152D-01-0.242D-01-0.291D-02-0.313D-01-0.392D-01-0.102D+00
 Coeff:     -0.237D-01 0.138D+00 0.107D+01
 Gap=     0.185 Goal=   None    Shift=    0.000
 Gap=     0.185 Goal=   None    Shift=    0.000
 RMSDP=1.53D-05 MaxDP=2.54D-03 DE=-9.86D-04 OVMax= 1.36D-03

 Cycle  10  Pass 1  IDiag  1:
 RMSU=  9.26D-06    CP:  9.82D-01  5.26D-01  4.80D-01  5.74D-01  5.52D-01
                    CP:  7.36D-01  6.90D-01  6.77D-01  5.15D-01
 E= -5446.20603699646     Delta-E=       -0.000421682689 Rises=F Damp=F
 DIIS: error= 1.92D-03 at cycle  10 NSaved=  10.
 NSaved=10 IEnMin=10 EnMin= -5446.20603699646     IErMin=10 ErrMin= 1.92D-03
 ErrMax= 1.92D-03  0.00D+00 EMaxC= 1.00D-01 BMatC= 1.34D-02 BMatP= 2.06D-02
 IDIUse=3 WtCom= 9.81D-01 WtEn= 1.92D-02
 Coeff-Com:  0.838D-02-0.106D-01-0.103D-02-0.439D-02-0.345D-01-0.176D+00
 Coeff-Com: -0.402D+00-0.498D+00 0.754D+00 0.136D+01
 Coeff-En:   0.000D+00 0.000D+00 0.000D+00 0.000D+00 0.000D+00 0.000D+00
 Coeff-En:   0.000D+00 0.000D+00 0.000D+00 0.100D+01
 Coeff:      0.822D-02-0.104D-01-0.101D-02-0.431D-02-0.339D-01-0.173D+00
 Coeff:     -0.394D+00-0.488D+00 0.740D+00 0.136D+01
 Gap=     0.185 Goal=   None    Shift=    0.000
 Gap=     0.185 Goal=   None    Shift=    0.000
 RMSDP=1.90D-05 MaxDP=3.78D-03 DE=-4.22D-04 OVMax= 2.00D-03

 Cycle  11  Pass 1  IDiag  1:
 RMSU=  9.19D-06    CP:  9.82D-01  5.23D-01  4.81D-01  5.64D-01  5.53D-01
                    CP:  7.48D-01  7.06D-01  7.83D-01  9.89D-01  1.04D+00
 E= -5446.20662693575     Delta-E=       -0.000589939289 Rises=F Damp=F
 DIIS: error= 8.47D-04 at cycle  11 NSaved=  11.
 NSaved=11 IEnMin=11 EnMin= -5446.20662693575     IErMin=11 ErrMin= 8.47D-04
 ErrMax= 8.47D-04  0.00D+00 EMaxC= 1.00D-01 BMatC= 2.64D-03 BMatP= 1.34D-02
 IDIUse=3 WtCom= 9.92D-01 WtEn= 8.47D-03
 Coeff-Com:  0.307D-02-0.326D-02-0.458D-03 0.492D-02-0.123D-01-0.881D-01
 Coeff-Com: -0.255D+00-0.397D+00 0.121D+00 0.841D+00 0.786D+00
 Coeff-En:   0.000D+00 0.000D+00 0.000D+00 0.000D+00 0.000D+00 0.000D+00
 Coeff-En:   0.000D+00 0.000D+00 0.000D+00 0.000D+00 0.100D+01
 Coeff:      0.305D-02-0.323D-02-0.454D-03 0.488D-02-0.122D-01-0.873D-01
 Coeff:     -0.253D+00-0.393D+00 0.120D+00 0.834D+00 0.788D+00
 Gap=     0.185 Goal=   None    Shift=    0.000
 Gap=     0.185 Goal=   None    Shift=    0.000
 RMSDP=9.00D-06 MaxDP=2.06D-03 DE=-5.90D-04 OVMax= 8.27D-04

 Cycle  12  Pass 1  IDiag  1:
 RMSU=  6.18D-06    CP:  9.82D-01  5.23D-01  4.81D-01  5.61D-01  5.50D-01
                    CP:  7.48D-01  7.24D-01  7.90D-01  1.15D+00  1.34D+00
                    CP:  9.78D-01
 E= -5446.20675092406     Delta-E=       -0.000123988308 Rises=F Damp=F
 DIIS: error= 2.78D-04 at cycle  12 NSaved=  12.
 NSaved=12 IEnMin=12 EnMin= -5446.20675092406     IErMin=12 ErrMin= 2.78D-04
 ErrMax= 2.78D-04  0.00D+00 EMaxC= 1.00D-01 BMatC= 2.98D-04 BMatP= 2.64D-03
 IDIUse=3 WtCom= 9.97D-01 WtEn= 2.78D-03
 Coeff-Com:  0.426D-03-0.471D-03-0.229D-03 0.320D-02 0.105D-02-0.677D-02
 Coeff-Com: -0.367D-01-0.991D-01-0.111D+00 0.900D-01 0.380D+00 0.779D+00
 Coeff-En:   0.000D+00 0.000D+00 0.000D+00 0.000D+00 0.000D+00 0.000D+00
 Coeff-En:   0.000D+00 0.000D+00 0.000D+00 0.000D+00 0.000D+00 0.100D+01
 Coeff:      0.425D-03-0.470D-03-0.229D-03 0.319D-02 0.105D-02-0.675D-02
 Coeff:     -0.366D-01-0.988D-01-0.111D+00 0.897D-01 0.379D+00 0.780D+00
 Gap=     0.185 Goal=   None    Shift=    0.000
 Gap=     0.185 Goal=   None    Shift=    0.000
 RMSDP=4.76D-06 MaxDP=7.98D-04 DE=-1.24D-04 OVMax= 1.31D-03

 Cycle  13  Pass 1  IDiag  1:
 RMSU=  2.67D-06    CP:  9.82D-01  5.22D-01  4.81D-01  5.59D-01  5.49D-01
                    CP:  7.49D-01  7.22D-01  7.83D-01  1.14D+00  1.37D+00
                    CP:  1.28D+00  1.12D+00
 E= -5446.20676810128     Delta-E=       -0.000017177224 Rises=F Damp=F
 DIIS: error= 3.71D-05 at cycle  13 NSaved=  13.
 NSaved=13 IEnMin=13 EnMin= -5446.20676810128     IErMin=13 ErrMin= 3.71D-05
 ErrMax= 3.71D-05  0.00D+00 EMaxC= 1.00D-01 BMatC= 9.18D-06 BMatP= 2.98D-04
 IDIUse=1 WtCom= 1.00D+00 WtEn= 0.00D+00
 Coeff-Com: -0.136D-03 0.870D-04-0.539D-04 0.580D-03 0.231D-02 0.105D-01
 Coeff-Com:  0.254D-01 0.156D-01-0.672D-01-0.970D-01 0.340D-01 0.404D+00
 Coeff-Com:  0.672D+00
 Coeff:     -0.136D-03 0.870D-04-0.539D-04 0.580D-03 0.231D-02 0.105D-01
 Coeff:      0.254D-01 0.156D-01-0.672D-01-0.970D-01 0.340D-01 0.404D+00
 Coeff:      0.672D+00
 Gap=     0.185 Goal=   None    Shift=    0.000
 Gap=     0.185 Goal=   None    Shift=    0.000
 RMSDP=2.06D-06 MaxDP=1.56D-04 DE=-1.72D-05 OVMax= 6.04D-04

 Cycle  14  Pass 1  IDiag  1:
 RMSU=  1.15D-06    CP:  9.82D-01  5.22D-01  4.81D-01  5.59D-01  5.48D-01
                    CP:  7.48D-01  7.19D-01  7.77D-01  1.11D+00  1.33D+00
                    CP:  1.34D+00  1.32D+00  9.94D-01
 E= -5446.20676931596     Delta-E=       -0.000001214683 Rises=F Damp=F
 DIIS: error= 9.74D-06 at cycle  14 NSaved=  14.
 NSaved=14 IEnMin=14 EnMin= -5446.20676931596     IErMin=14 ErrMin= 9.74D-06
 ErrMax= 9.74D-06  0.00D+00 EMaxC= 1.00D-01 BMatC= 8.10D-07 BMatP= 9.18D-06
 IDIUse=1 WtCom= 1.00D+00 WtEn= 0.00D+00
 Coeff-Com: -0.994D-04 0.735D-04 0.120D-04-0.222D-03 0.850D-03 0.535D-02
 Coeff-Com:  0.164D-01 0.190D-01-0.106D-01-0.512D-01-0.424D-01 0.798D-01
 Coeff-Com:  0.290D+00 0.693D+00
 Coeff:     -0.994D-04 0.735D-04 0.120D-04-0.222D-03 0.850D-03 0.535D-02
 Coeff:      0.164D-01 0.190D-01-0.106D-01-0.512D-01-0.424D-01 0.798D-01
 Coeff:      0.290D+00 0.693D+00
 Gap=     0.185 Goal=   None    Shift=    0.000
 Gap=     0.185 Goal=   None    Shift=    0.000
 RMSDP=8.38D-07 MaxDP=5.26D-05 DE=-1.21D-06 OVMax= 2.88D-04

 Cycle  15  Pass 1  IDiag  1:
 RMSU=  4.31D-07    CP:  9.82D-01  5.22D-01  4.81D-01  5.59D-01  5.48D-01
                    CP:  7.48D-01  7.18D-01  7.71D-01  1.09D+00  1.30D+00
                    CP:  1.35D+00  1.38D+00  1.14D+00  1.03D+00
 E= -5446.20676947964     Delta-E=       -0.000000163673 Rises=F Damp=F
 DIIS: error= 7.54D-06 at cycle  15 NSaved=  15.
 NSaved=15 IEnMin=15 EnMin= -5446.20676947964     IErMin=15 ErrMin= 7.54D-06
 ErrMax= 7.54D-06  0.00D+00 EMaxC= 1.00D-01 BMatC= 3.01D-07 BMatP= 8.10D-07
 IDIUse=1 WtCom= 1.00D+00 WtEn= 0.00D+00
 Coeff-Com: -0.239D-04 0.194D-04 0.201D-04-0.243D-03-0.687D-04 0.422D-03
 Coeff-Com:  0.278D-02 0.532D-02 0.985D-02-0.293D-02-0.284D-01-0.391D-01
 Coeff-Com: -0.825D-02 0.300D+00 0.761D+00
 Coeff:     -0.239D-04 0.194D-04 0.201D-04-0.243D-03-0.687D-04 0.422D-03
 Coeff:      0.278D-02 0.532D-02 0.985D-02-0.293D-02-0.284D-01-0.391D-01
 Coeff:     -0.825D-02 0.300D+00 0.761D+00
 Gap=     0.185 Goal=   None    Shift=    0.000
 Gap=     0.185 Goal=   None    Shift=    0.000
 RMSDP=5.29D-07 MaxDP=6.74D-05 DE=-1.64D-07 OVMax= 1.73D-04

 Cycle  16  Pass 1  IDiag  1:
 RMSU=  1.85D-07    CP:  9.82D-01  5.22D-01  4.81D-01  5.59D-01  5.48D-01
                    CP:  7.47D-01  7.17D-01  7.69D-01  1.09D+00  1.28D+00
                    CP:  1.36D+00  1.42D+00  1.22D+00  1.22D+00  9.73D-01
 E= -5446.20676952304     Delta-E=       -0.000000043399 Rises=F Damp=F
 DIIS: error= 2.05D-06 at cycle  16 NSaved=  16.
 NSaved=16 IEnMin=16 EnMin= -5446.20676952304     IErMin=16 ErrMin= 2.05D-06
 ErrMax= 2.05D-06  0.00D+00 EMaxC= 1.00D-01 BMatC= 3.46D-08 BMatP= 3.01D-07
 IDIUse=1 WtCom= 1.00D+00 WtEn= 0.00D+00
 Coeff-Com:  0.438D-05-0.393D-05 0.897D-05-0.927D-04-0.181D-03-0.680D-03
 Coeff-Com: -0.117D-02-0.404D-03 0.733D-02 0.718D-02-0.870D-02-0.317D-01
 Coeff-Com: -0.551D-01 0.343D-01 0.400D+00 0.649D+00
 Coeff:      0.438D-05-0.393D-05 0.897D-05-0.927D-04-0.181D-03-0.680D-03
 Coeff:     -0.117D-02-0.404D-03 0.733D-02 0.718D-02-0.870D-02-0.317D-01
 Coeff:     -0.551D-01 0.343D-01 0.400D+00 0.649D+00
 Gap=     0.185 Goal=   None    Shift=    0.000
 Gap=     0.185 Goal=   None    Shift=    0.000
 RMSDP=1.87D-07 MaxDP=1.34D-05 DE=-4.34D-08 OVMax= 6.31D-05

 Cycle  17  Pass 1  IDiag  1:
 RMSU=  6.82D-08    CP:  9.82D-01  5.22D-01  4.81D-01  5.59D-01  5.48D-01
                    CP:  7.47D-01  7.16D-01  7.68D-01  1.08D+00  1.28D+00
                    CP:  1.36D+00  1.43D+00  1.24D+00  1.28D+00  1.16D+00
                    CP:  9.07D-01
 E= -5446.20676952971     Delta-E=       -0.000000006674 Rises=F Damp=F
 DIIS: error= 3.53D-07 at cycle  17 NSaved=  17.
 NSaved=17 IEnMin=17 EnMin= -5446.20676952971     IErMin=17 ErrMin= 3.53D-07
 ErrMax= 3.53D-07  0.00D+00 EMaxC= 1.00D-01 BMatC= 2.06D-09 BMatP= 3.46D-08
 IDIUse=1 WtCom= 1.00D+00 WtEn= 0.00D+00
 Coeff-Com:  0.560D-05-0.561D-05 0.346D-06-0.291D-05-0.629D-04-0.336D-03
 Coeff-Com: -0.828D-03-0.950D-03 0.152D-02 0.336D-02 0.798D-04-0.621D-02
 Coeff-Com: -0.218D-01-0.266D-01 0.612D-01 0.260D+00 0.731D+00
 Coeff:      0.560D-05-0.561D-05 0.346D-06-0.291D-05-0.629D-04-0.336D-03
 Coeff:     -0.828D-03-0.950D-03 0.152D-02 0.336D-02 0.798D-04-0.621D-02
 Coeff:     -0.218D-01-0.266D-01 0.612D-01 0.260D+00 0.731D+00
 Gap=     0.185 Goal=   None    Shift=    0.000
 Gap=     0.185 Goal=   None    Shift=    0.000
 RMSDP=6.44D-08 MaxDP=5.31D-06 DE=-6.67D-09 OVMax= 2.11D-05

 Cycle  18  Pass 1  IDiag  1:
 RMSU=  2.65D-08    CP:  9.82D-01  5.22D-01  4.81D-01  5.59D-01  5.48D-01
                    CP:  7.47D-01  7.16D-01  7.68D-01  1.08D+00  1.27D+00
                    CP:  1.36D+00  1.44D+00  1.25D+00  1.31D+00  1.20D+00
                    CP:  1.02D+00  9.99D-01
 E= -5446.20676953027     Delta-E=       -0.000000000558 Rises=F Damp=F
 DIIS: error= 5.67D-07 at cycle  18 NSaved=  18.
 NSaved=18 IEnMin=18 EnMin= -5446.20676953027     IErMin=17 ErrMin= 3.53D-07
 ErrMax= 5.67D-07  0.00D+00 EMaxC= 1.00D-01 BMatC= 1.52D-09 BMatP= 2.06D-09
 IDIUse=1 WtCom= 1.00D+00 WtEn= 0.00D+00
 Coeff-Com:  0.211D-05-0.201D-05-0.139D-05 0.136D-04-0.319D-05-0.702D-04
 Coeff-Com: -0.241D-03-0.442D-03-0.416D-03 0.588D-03 0.123D-02 0.193D-02
 Coeff-Com: -0.282D-02-0.186D-01-0.318D-01 0.253D-01 0.378D+00 0.648D+00
 Coeff:      0.211D-05-0.201D-05-0.139D-05 0.136D-04-0.319D-05-0.702D-04
 Coeff:     -0.241D-03-0.442D-03-0.416D-03 0.588D-03 0.123D-02 0.193D-02
 Coeff:     -0.282D-02-0.186D-01-0.318D-01 0.253D-01 0.378D+00 0.648D+00
 Gap=     0.185 Goal=   None    Shift=    0.000
 Gap=     0.185 Goal=   None    Shift=    0.000
 RMSDP=2.58D-08 MaxDP=2.25D-06 DE=-5.58D-10 OVMax= 8.90D-06

 Cycle  19  Pass 1  IDiag  1:
 RMSU=  1.01D-08    CP:  9.82D-01  5.22D-01  4.81D-01  5.59D-01  5.48D-01
                    CP:  7.47D-01  7.16D-01  7.68D-01  1.08D+00  1.27D+00
                    CP:  1.36D+00  1.44D+00  1.25D+00  1.31D+00  1.22D+00
                    CP:  1.07D+00  1.13D+00  8.55D-01
 E= -5446.20676953019     Delta-E=        0.000000000080 Rises=F Damp=F
 DIIS: error= 1.94D-07 at cycle  19 NSaved=  19.
 NSaved=19 IEnMin=18 EnMin= -5446.20676953027     IErMin=19 ErrMin= 1.94D-07
 ErrMax= 1.94D-07  0.00D+00 EMaxC= 1.00D-01 BMatC= 2.00D-10 BMatP= 1.52D-09
 IDIUse=1 WtCom= 1.00D+00 WtEn= 0.00D+00
 Coeff-Com:  0.893D-07 0.758D-07-0.734D-06 0.718D-05 0.835D-05 0.160D-04
 Coeff-Com:  0.680D-05-0.768D-04-0.441D-03-0.231D-03 0.522D-03 0.185D-02
 Coeff-Com:  0.192D-02-0.457D-02-0.236D-01-0.296D-01 0.628D-01 0.305D+00
 Coeff-Com:  0.686D+00
 Coeff:      0.893D-07 0.758D-07-0.734D-06 0.718D-05 0.835D-05 0.160D-04
 Coeff:      0.680D-05-0.768D-04-0.441D-03-0.231D-03 0.522D-03 0.185D-02
 Coeff:      0.192D-02-0.457D-02-0.236D-01-0.296D-01 0.628D-01 0.305D+00
 Coeff:      0.686D+00
 Gap=     0.185 Goal=   None    Shift=    0.000
 Gap=     0.185 Goal=   None    Shift=    0.000
 RMSDP=9.31D-09 MaxDP=6.81D-07 DE= 8.00D-11 OVMax= 2.86D-06

 Error on total polarization charges =  0.03061
 SCF Done:  E(UMN15) =  -5446.20676953     A.U. after   19 cycles
            NFock= 19  Conv=0.93D-08     -V/T= 2.0909
 <Sx>= 0.0000 <Sy>= 0.0000 <Sz>= 0.0000 <S**2>=-0.0000 S=-0.0000
 <L.S>=  0.00000000000    
 KE= 4.992305051419D+03 PE=-3.653714257130D+04 EE= 1.432008553559D+04
 SMD-CDS (non-electrostatic) energy       (kcal/mol) =       4.02
 (included in total energy above)
 Annihilation of the first spin contaminant:
 S**2 before annihilation    -0.0000,   after     0.0000
 Leave Link  502 at Wed Apr 30 07:53:57 2025, MaxMem= 12348030976 cpu:           19575.4 elap:             821.8
 (Enter /sysapps/ubuntu-applications/gaussian-new/avx/g16/l801.exe)
 DoSCS=F DFT=T ScalE2(SS,OS)=  1.000000  1.000000
 Range of M.O.s used for correlation:     1   916
 NBasis=   916 NAE=   230 NBE=   230 NFC=     0 NFV=     0
 NROrb=    916 NOA=   230 NOB=   230 NVA=   686 NVB=   686

 **** Warning!!: The largest alpha MO coefficient is  0.12570533D+02


 **** Warning!!: The largest beta MO coefficient is  0.12570533D+02

 Leave Link  801 at Wed Apr 30 07:53:58 2025, MaxMem= 12348030976 cpu:               2.0 elap:               0.1
 (Enter /sysapps/ubuntu-applications/gaussian-new/avx/g16/l1101.exe)
 Using compressed storage, NAtomX=    69.
 Will process     70 centers per pass.
   1 Symmetry operations used in ECPInt.
 ECPInt:  NShTT=   77815 NPrTT=  297642 LenC2=   59710 LenP2D=  138460.
 LDataN:  DoStor=T MaxTD1=10 Len=  848
 Number of processors reduced to  10 by ecpmxn.
 Leave Link 1101 at Wed Apr 30 07:54:10 2025, MaxMem= 12348030976 cpu:             196.7 elap:              11.8
 (Enter /sysapps/ubuntu-applications/gaussian-new/avx/g16/l1102.exe)
 Symmetrizing basis deriv contribution to polar:
 IMax=3 JMax=2 DiffMx= 0.00D+00
 Leave Link 1102 at Wed Apr 30 07:54:12 2025, MaxMem= 12348030976 cpu:               4.3 elap:               0.3
 (Enter /sysapps/ubuntu-applications/gaussian-new/avx/g16/l1110.exe)
 Forming Gx(P) for the SCF density, NAtomX=    69.
 Integral derivatives from FoFJK, PRISM(SPDF).
 Do as many integral derivatives as possible in FoFJK.
 G2DrvN: MDV=   12348024906.
 G2DrvN: will do    70 centers at a time, making    1 passes.
 Calling FoFCou, ICntrl=  3107 FMM=T I1Cent=   0 AccDes= 0.00D+00.
 FoFJK:  IHMeth= 1 ICntrl=    3107 DoSepK=F KAlg= 0 I1Cent=           0 FoldK=F
 IRaf=         0 NMat=       1 IRICut=       1 DoRegI=T DoRafI=F ISym2E= 0 IDoP0=0 IntGTp=1.
 FoFCou: FMM=T IPFlag=           0 FMFlag=      100000 FMFlg1=        2001
         NFxFlg=           0 DoJE=F BraDBF=F KetDBF=F FulRan=T
         wScrn=  0.000000 ICntrl=      3107 IOpCl=  1 I1Cent=           0 NGrid=           0
         NMat0=    1 NMatS0=      1 NMatT0=    0 NMatD0=    1 NMtDS0=    0 NMtDT0=    0
 Symmetry not used in FoFCou.
 FMM levels:  10  Number of levels for PrismC:   9
 Defaulting to unpruned grid for atomic number  71.
 Defaulting to unpruned grid for atomic number  71.
 Defaulting to unpruned grid for atomic number  71.
 Defaulting to unpruned grid for atomic number  71.
 Defaulting to unpruned grid for atomic number  71.
 Defaulting to unpruned grid for atomic number  71.
 Defaulting to unpruned grid for atomic number  71.
 Defaulting to unpruned grid for atomic number  71.
 Defaulting to unpruned grid for atomic number  71.
 Defaulting to unpruned grid for atomic number  71.
 Defaulting to unpruned grid for atomic number  71.
 Defaulting to unpruned grid for atomic number  71.
 Defaulting to unpruned grid for atomic number  71.
 Defaulting to unpruned grid for atomic number  71.
 Defaulting to unpruned grid for atomic number  71.
 Defaulting to unpruned grid for atomic number  71.
 Defaulting to unpruned grid for atomic number  71.
 Defaulting to unpruned grid for atomic number  71.
 Defaulting to unpruned grid for atomic number  71.
 Defaulting to unpruned grid for atomic number  71.
 Defaulting to unpruned grid for atomic number  71.
 Defaulting to unpruned grid for atomic number  71.
 Defaulting to unpruned grid for atomic number  71.
 Defaulting to unpruned grid for atomic number  71.
 NEqPCM:  Using equilibrium solvation (IEInf=0, Eps=  10.1250, EpsInf=   2.0874)
 G2PCM: DoFxE=T DoFxN=T DoGrad=T DoDP/DQ/DG/TGxP=FFFF NFrqRd=   0 IEInf=0 SqF1=F DoCFld=F IF1Alg=4.
 GePol: Maximum number of non-zero 1st derivatives   =     259
 End of G2Drv F.D. properties file   721 does not exist.
 End of G2Drv F.D. properties file   722 does not exist.
 End of G2Drv F.D. properties file   788 does not exist.
 Leave Link 1110 at Wed Apr 30 08:34:42 2025, MaxMem= 12348030976 cpu:           58131.4 elap:            2430.1
 (Enter /sysapps/ubuntu-applications/gaussian-new/avx/g16/l1002.exe)
 Minotr:  UHF open shell wavefunction.
          IDoAtm=11111111111111111111111111111111111111111111111111
          IDoAtm=1111111111111111111
 NEqPCM:  Using equilibrium solvation (IEInf=0, Eps=  10.1250, EpsInf=   2.0874)
          Direct CPHF calculation.
          Differentiating once with respect to nuclear coordinates.
          Requested convergence is 1.0D-08 RMS, and 1.0D-07 maximum.
          Secondary convergence is 1.0D-12 RMS, and 1.0D-12 maximum.
          NewPWx=T KeepS1=F KeepF1=F KeepIn=T MapXYZ=F SortEE=F KeepMc=T.
 Defaulting to unpruned grid for atomic number  71.
        21375 words used for storage of precomputed grid.
 Two-electron integral symmetry not used.
          MDV=   12348030976 using IRadAn=       1.
          Solving linear equations simultaneously, MaxMat=      72.
 FoF2E skips out because all densities are zero.
 CalDSu exits because no D1Ps are significant.
 FoFJK:  IHMeth= 1 ICntrl=       0 DoSepK=F KAlg= 0 I1Cent=           0 FoldK=F
 IRaf= 800000000 NMat=      72 IRICut=       1 DoRegI=T DoRafI=F ISym2E= 0 IDoP0=3 IntGTp=3.
 Defaulting to unpruned grid for atomic number  71.
 Defaulting to unpruned grid for atomic number  71.
 Defaulting to unpruned grid for atomic number  71.
 Defaulting to unpruned grid for atomic number  71.
 Defaulting to unpruned grid for atomic number  71.
 Defaulting to unpruned grid for atomic number  71.
 Defaulting to unpruned grid for atomic number  71.
 Defaulting to unpruned grid for atomic number  71.
 Defaulting to unpruned grid for atomic number  71.
 Defaulting to unpruned grid for atomic number  71.
 Defaulting to unpruned grid for atomic number  71.
 Defaulting to unpruned grid for atomic number  71.
 Defaulting to unpruned grid for atomic number  71.
 Defaulting to unpruned grid for atomic number  71.
 Defaulting to unpruned grid for atomic number  71.
 Defaulting to unpruned grid for atomic number  71.
 Defaulting to unpruned grid for atomic number  71.
 Defaulting to unpruned grid for atomic number  71.
 Defaulting to unpruned grid for atomic number  71.
 Defaulting to unpruned grid for atomic number  71.
 Defaulting to unpruned grid for atomic number  71.
 Defaulting to unpruned grid for atomic number  71.
 Defaulting to unpruned grid for atomic number  71.
 Defaulting to unpruned grid for atomic number  71.
          There are   210 degrees of freedom in the 1st order CPHF.  IDoFFX=6 NUNeed=     0.
    207 vectors produced by pass  0 Test12= 3.16D-13 1.00D-09 XBig12= 3.51D-01 2.07D-01.
 AX will form    72 AO Fock derivatives at one time.
    204 vectors produced by pass  1 Test12= 3.16D-13 1.00D-09 XBig12= 1.44D-01 4.50D-02.
    204 vectors produced by pass  2 Test12= 3.16D-13 1.00D-09 XBig12= 2.27D-03 3.41D-03.
    204 vectors produced by pass  3 Test12= 3.16D-13 1.00D-09 XBig12= 2.72D-05 3.36D-04.
    204 vectors produced by pass  4 Test12= 3.16D-13 1.00D-09 XBig12= 2.87D-07 3.56D-05.
    204 vectors produced by pass  5 Test12= 3.16D-13 1.00D-09 XBig12= 1.98D-09 5.30D-06.
    175 vectors produced by pass  6 Test12= 3.16D-13 1.00D-09 XBig12= 1.08D-11 3.07D-07.
     59 vectors produced by pass  7 Test12= 3.16D-13 1.00D-09 XBig12= 6.22D-14 1.96D-08.
      4 vectors produced by pass  8 Test12= 3.16D-13 1.00D-09 XBig12= 5.70D-15 1.81D-09.
      2 vectors produced by pass  9 Test12= 3.16D-13 1.00D-09 XBig12= 4.53D-15 2.58D-09.
 InvSVY:  IOpt=1 It=  1 EMax= 1.22D-15
 Solved reduced A of dimension  1467 with   210 vectors.
 End of Minotr F.D. properties file   721 does not exist.
 End of Minotr F.D. properties file   722 does not exist.
 End of Minotr F.D. properties file   788 does not exist.
 Leave Link 1002 at Wed Apr 30 10:28:43 2025, MaxMem= 12348030976 cpu:          163373.4 elap:            6836.8
 (Enter /sysapps/ubuntu-applications/gaussian-new/avx/g16/l601.exe)
 Copying SCF densities to generalized density rwf, IOpCl= 1 IROHF=0.

 **********************************************************************

            Population analysis using the SCF density.

 **********************************************************************

 Alpha  occ. eigenvalues --  -88.06511 -88.06007 -88.05992 -24.34599 -24.34573
 Alpha  occ. eigenvalues --  -24.34318 -24.34293 -24.34172 -24.34145 -24.33839
 Alpha  occ. eigenvalues --  -24.33768 -24.33763 -18.89945 -18.89683 -18.87759
 Alpha  occ. eigenvalues --  -18.85825 -18.85495 -18.85090 -18.85022 -18.84571
 Alpha  occ. eigenvalues --  -18.84546 -18.84280 -18.84167 -18.84065 -18.83456
 Alpha  occ. eigenvalues --  -18.83170 -17.82344 -14.24417 -14.18783 -14.14963
 Alpha  occ. eigenvalues --  -14.14401 -11.57199 -11.57182 -11.57163 -10.33823
 Alpha  occ. eigenvalues --  -10.33646 -10.33488 -10.23462 -10.23362 -10.21668
 Alpha  occ. eigenvalues --  -10.17974 -10.16481 -10.15291 -10.14061 -10.13689
 Alpha  occ. eigenvalues --  -10.13024 -10.11816 -10.11484 -10.10690 -10.10601
 Alpha  occ. eigenvalues --  -10.07707 -10.06645 -10.06432 -10.06129 -10.06091
 Alpha  occ. eigenvalues --  -10.06034  -7.96360  -7.95820  -7.95817  -6.15875
 Alpha  occ. eigenvalues --   -6.15828  -6.15705  -6.15342  -6.15341  -6.15289
 Alpha  occ. eigenvalues --   -6.15286  -6.15178  -6.15167  -5.42214  -5.42174
 Alpha  occ. eigenvalues --   -5.42165  -5.42153  -5.42125  -2.35350  -1.38174
 Alpha  occ. eigenvalues --   -1.38100  -1.37679  -1.28187  -1.28164  -1.28116
 Alpha  occ. eigenvalues --   -1.28008  -1.27613  -1.27566  -1.24885  -1.24828
 Alpha  occ. eigenvalues --   -1.23881  -1.20452  -1.19519  -1.18790  -1.18610
 Alpha  occ. eigenvalues --   -1.18027  -1.14891  -1.12259  -1.08827  -1.07818
 Alpha  occ. eigenvalues --   -1.07583  -1.06931  -1.06604  -1.05732  -1.05269
 Alpha  occ. eigenvalues --   -1.05057  -0.99575  -0.97289  -0.95384  -0.92144
 Alpha  occ. eigenvalues --   -0.90389  -0.87486  -0.84617  -0.81081  -0.80624
 Alpha  occ. eigenvalues --   -0.80566  -0.80238  -0.79633  -0.78691  -0.76526
 Alpha  occ. eigenvalues --   -0.76050  -0.73961  -0.72513  -0.72392  -0.72283
 Alpha  occ. eigenvalues --   -0.71868  -0.68210  -0.68113  -0.68050  -0.67913
 Alpha  occ. eigenvalues --   -0.67567  -0.67526  -0.66996  -0.66304  -0.65902
 Alpha  occ. eigenvalues --   -0.64375  -0.63806  -0.63672  -0.63031  -0.62909
 Alpha  occ. eigenvalues --   -0.62741  -0.62252  -0.62220  -0.61971  -0.61875
 Alpha  occ. eigenvalues --   -0.61822  -0.61718  -0.61632  -0.61525  -0.61167
 Alpha  occ. eigenvalues --   -0.60059  -0.58889  -0.58007  -0.57863  -0.57576
 Alpha  occ. eigenvalues --   -0.57335  -0.56990  -0.56589  -0.56465  -0.56213
 Alpha  occ. eigenvalues --   -0.55947  -0.55595  -0.55359  -0.55322  -0.55150
 Alpha  occ. eigenvalues --   -0.55091  -0.54983  -0.54555  -0.54202  -0.54063
 Alpha  occ. eigenvalues --   -0.53836  -0.53642  -0.53444  -0.53282  -0.52586
 Alpha  occ. eigenvalues --   -0.52228  -0.51886  -0.51774  -0.51706  -0.51468
 Alpha  occ. eigenvalues --   -0.51164  -0.51041  -0.50272  -0.49431  -0.49421
 Alpha  occ. eigenvalues --   -0.49085  -0.49057  -0.48858  -0.48579  -0.48350
 Alpha  occ. eigenvalues --   -0.47909  -0.47118  -0.46424  -0.46345  -0.46041
 Alpha  occ. eigenvalues --   -0.45587  -0.45328  -0.45244  -0.44886  -0.44382
 Alpha  occ. eigenvalues --   -0.43560  -0.43448  -0.43185  -0.42654  -0.42590
 Alpha  occ. eigenvalues --   -0.42435  -0.42202  -0.41842  -0.41540  -0.41439
 Alpha  occ. eigenvalues --   -0.41187  -0.40754  -0.40531  -0.40231  -0.39861
 Alpha  occ. eigenvalues --   -0.39668  -0.39631  -0.39493  -0.39154  -0.38813
 Alpha  occ. eigenvalues --   -0.38725  -0.38481  -0.38273  -0.37934  -0.37591
 Alpha  occ. eigenvalues --   -0.37243  -0.37162  -0.36917  -0.36842  -0.36180
 Alpha  occ. eigenvalues --   -0.36060  -0.35534  -0.29801  -0.29710  -0.26350
 Alpha virt. eigenvalues --   -0.07886  -0.04494  -0.02514  -0.02114   0.00099
 Alpha virt. eigenvalues --    0.00680   0.00915   0.04055   0.04435   0.05439
 Alpha virt. eigenvalues --    0.05747   0.05968   0.06360   0.06790   0.07084
 Alpha virt. eigenvalues --    0.08146   0.08401   0.09125   0.09330   0.09621
 Alpha virt. eigenvalues --    0.09984   0.10446   0.10506   0.10644   0.11153
 Alpha virt. eigenvalues --    0.11184   0.11638   0.11993   0.12374   0.12508
 Alpha virt. eigenvalues --    0.13073   0.13346   0.13760   0.14095   0.14242
 Alpha virt. eigenvalues --    0.14679   0.15256   0.15714   0.15947   0.16339
 Alpha virt. eigenvalues --    0.16594   0.16962   0.17356   0.17799   0.17929
 Alpha virt. eigenvalues --    0.18345   0.18591   0.19114   0.19588   0.20129
[...]
    43   Atom        0.000000      0.000000      0.000000
    44   Atom        0.000000      0.000000      0.000000
    45   Atom        0.000000      0.000000      0.000000
    46   Atom        0.000000      0.000000      0.000000
    47   Atom        0.000000      0.000000      0.000000
    48   Atom        0.000000      0.000000      0.000000
    49   Atom        0.000000      0.000000      0.000000
    50   Atom        0.000000      0.000000      0.000000
    51   Atom        0.000000      0.000000      0.000000
    52   Atom        0.000000      0.000000      0.000000
    53   Atom        0.000000      0.000000      0.000000
    54   Atom        0.000000      0.000000      0.000000
    55   Atom        0.000000      0.000000      0.000000
    56   Atom        0.000000      0.000000      0.000000
    57   Atom        0.000000      0.000000      0.000000
    58   Atom        0.000000      0.000000      0.000000
    59   Atom        0.000000      0.000000      0.000000
    60   Atom        0.000000      0.000000      0.000000
    61   Atom        0.000000      0.000000      0.000000
    62   Atom        0.000000      0.000000      0.000000
    63   Atom        0.000000      0.000000      0.000000
    64   Atom        0.000000      0.000000      0.000000
    65   Atom        0.000000      0.000000      0.000000
    66   Atom        0.000000      0.000000      0.000000
    67   Atom        0.000000      0.000000      0.000000
    68   Atom        0.000000      0.000000      0.000000
    69   Atom        0.000000      0.000000      0.000000
 --------------------------------------------------------


 ---------------------------------------------------------------------------------
              Anisotropic Spin Dipole Couplings in Principal Axis System
 ---------------------------------------------------------------------------------

       Atom             a.u.   MegaHertz   Gauss  10(-4) cm-1        Axes

              Baa     0.0000     0.000     0.000     0.000  1.0000  0.0000  0.0000
     1 C(13)  Bbb     0.0000     0.000     0.000     0.000 -0.0000  1.0000  0.0000
              Bcc     0.0000     0.000     0.000     0.000  0.0000  0.0000  1.0000
 
              Baa     0.0000     0.000     0.000     0.000  1.0000  0.0000  0.0000
     2 C(13)  Bbb     0.0000     0.000     0.000     0.000 -0.0000  1.0000  0.0000
              Bcc     0.0000     0.000     0.000     0.000  0.0000  0.0000  1.0000
 
              Baa     0.0000     0.000     0.000     0.000  1.0000  0.0000  0.0000
     3 C(13)  Bbb     0.0000     0.000     0.000     0.000 -0.0000  1.0000  0.0000
              Bcc     0.0000     0.000     0.000     0.000  0.0000  0.0000  1.0000
 
              Baa     0.0000     0.000     0.000     0.000  1.0000  0.0000  0.0000
     4 C(13)  Bbb     0.0000     0.000     0.000     0.000 -0.0000  1.0000  0.0000
              Bcc     0.0000     0.000     0.000     0.000  0.0000  0.0000  1.0000
 
              Baa     0.0000     0.000     0.000     0.000  1.0000  0.0000  0.0000
     5 C(13)  Bbb     0.0000     0.000     0.000     0.000 -0.0000  1.0000  0.0000
              Bcc     0.0000     0.000     0.000     0.000  0.0000  0.0000  1.0000
 
              Baa     0.0000     0.000     0.000     0.000  1.0000  0.0000  0.0000
     6 C(13)  Bbb     0.0000     0.000     0.000     0.000 -0.0000  1.0000  0.0000
              Bcc     0.0000     0.000     0.000     0.000  0.0000  0.0000  1.0000
 
              Baa     0.0000     0.000     0.000     0.000  1.0000  0.0000  0.0000
     7 C(13)  Bbb     0.0000     0.000     0.000     0.000 -0.0000  1.0000  0.0000
              Bcc     0.0000     0.000     0.000     0.000  0.0000  0.0000  1.0000
 
              Baa     0.0000     0.000     0.000     0.000  1.0000  0.0000  0.0000
     8 C(13)  Bbb     0.0000     0.000     0.000     0.000 -0.0000  1.0000  0.0000
              Bcc     0.0000     0.000     0.000     0.000  0.0000  0.0000  1.0000
 
              Baa     0.0000     0.000     0.000     0.000  1.0000  0.0000  0.0000
     9 C(13)  Bbb     0.0000     0.000     0.000     0.000 -0.0000  1.0000  0.0000
              Bcc     0.0000     0.000     0.000     0.000  0.0000  0.0000  1.0000
 
              Baa     0.0000     0.000     0.000     0.000  1.0000  0.0000  0.0000
    10 H(1)   Bbb     0.0000     0.000     0.000     0.000 -0.0000  1.0000  0.0000
              Bcc     0.0000     0.000     0.000     0.000  0.0000  0.0000  1.0000
 
              Baa     0.0000     0.000     0.000     0.000  1.0000  0.0000  0.0000
    11 H(1)   Bbb     0.0000     0.000     0.000     0.000 -0.0000  1.0000  0.0000
              Bcc     0.0000     0.000     0.000     0.000  0.0000  0.0000  1.0000
 
              Baa     0.0000     0.000     0.000     0.000  1.0000  0.0000  0.0000
    12 H(1)   Bbb     0.0000     0.000     0.000     0.000 -0.0000  1.0000  0.0000
              Bcc     0.0000     0.000     0.000     0.000  0.0000  0.0000  1.0000
 
              Baa     0.0000     0.000     0.000     0.000  1.0000  0.0000  0.0000
    13 H(1)   Bbb     0.0000     0.000     0.000     0.000 -0.0000  1.0000  0.0000
              Bcc     0.0000     0.000     0.000     0.000  0.0000  0.0000  1.0000
 
              Baa     0.0000     0.000     0.000     0.000  1.0000  0.0000  0.0000
    14 H(1)   Bbb     0.0000     0.000     0.000     0.000 -0.0000  1.0000  0.0000
              Bcc     0.0000     0.000     0.000     0.000  0.0000  0.0000  1.0000
 
              Baa     0.0000    -0.000    -0.000    -0.000  1.0000  0.0000  0.0000
    15 O(17)  Bbb     0.0000    -0.000    -0.000    -0.000 -0.0000  1.0000  0.0000
              Bcc     0.0000    -0.000    -0.000    -0.000  0.0000  0.0000  1.0000
 
              Baa     0.0000    -0.000    -0.000    -0.000  1.0000  0.0000  0.0000
    16 O(17)  Bbb     0.0000    -0.000    -0.000    -0.000 -0.0000  1.0000  0.0000
              Bcc     0.0000    -0.000    -0.000    -0.000  0.0000  0.0000  1.0000
 
              Baa     0.0000    -0.000    -0.000    -0.000  1.0000  0.0000  0.0000
    17 O(17)  Bbb     0.0000    -0.000    -0.000    -0.000 -0.0000  1.0000  0.0000
              Bcc     0.0000    -0.000    -0.000    -0.000  0.0000  0.0000  1.0000
 
              Baa     0.0000    -0.000    -0.000    -0.000  1.0000  0.0000  0.0000
    18 O(17)  Bbb     0.0000    -0.000    -0.000    -0.000 -0.0000  1.0000  0.0000
              Bcc     0.0000    -0.000    -0.000    -0.000  0.0000  0.0000  1.0000
 
              Baa     0.0000     0.000     0.000     0.000  1.0000  0.0000  0.0000
    19 C(13)  Bbb     0.0000     0.000     0.000     0.000 -0.0000  1.0000  0.0000
              Bcc     0.0000     0.000     0.000     0.000  0.0000  0.0000  1.0000
 
              Baa     0.0000     0.000     0.000     0.000  1.0000  0.0000  0.0000
    20 C(13)  Bbb     0.0000     0.000     0.000     0.000 -0.0000  1.0000  0.0000
              Bcc     0.0000     0.000     0.000     0.000  0.0000  0.0000  1.0000
 
              Baa     0.0000     0.000     0.000     0.000  1.0000  0.0000  0.0000
    21 H(1)   Bbb     0.0000     0.000     0.000     0.000 -0.0000  1.0000  0.0000
              Bcc     0.0000     0.000     0.000     0.000  0.0000  0.0000  1.0000
 
              Baa     0.0000     0.000     0.000     0.000  1.0000  0.0000  0.0000
    22 H(1)   Bbb     0.0000     0.000     0.000     0.000 -0.0000  1.0000  0.0000
              Bcc     0.0000     0.000     0.000     0.000  0.0000  0.0000  1.0000
 
              Baa     0.0000     0.000     0.000     0.000  1.0000  0.0000  0.0000
    23 H(1)   Bbb     0.0000     0.000     0.000     0.000 -0.0000  1.0000  0.0000
              Bcc     0.0000     0.000     0.000     0.000  0.0000  0.0000  1.0000
 
              Baa     0.0000     0.000     0.000     0.000  1.0000  0.0000  0.0000
    24 H(1)   Bbb     0.0000     0.000     0.000     0.000 -0.0000  1.0000  0.0000
              Bcc     0.0000     0.000     0.000     0.000  0.0000  0.0000  1.0000
 
              Baa     0.0000     0.000     0.000     0.000  1.0000  0.0000  0.0000
    25 H(1)   Bbb     0.0000     0.000     0.000     0.000 -0.0000  1.0000  0.0000
              Bcc     0.0000     0.000     0.000     0.000  0.0000  0.0000  1.0000
 
              Baa     0.0000     0.000     0.000     0.000  1.0000  0.0000  0.0000
    26 H(1)   Bbb     0.0000     0.000     0.000     0.000 -0.0000  1.0000  0.0000
              Bcc     0.0000     0.000     0.000     0.000  0.0000  0.0000  1.0000
 
              Baa     0.0000    -0.000    -0.000    -0.000  1.0000  0.0000  0.0000
    27 O(17)  Bbb     0.0000    -0.000    -0.000    -0.000 -0.0000  1.0000  0.0000
              Bcc     0.0000    -0.000    -0.000    -0.000  0.0000  0.0000  1.0000
 
              Baa     0.0000    -0.000    -0.000    -0.000  1.0000  0.0000  0.0000
    28 O(17)  Bbb     0.0000    -0.000    -0.000    -0.000 -0.0000  1.0000  0.0000
              Bcc     0.0000    -0.000    -0.000    -0.000  0.0000  0.0000  1.0000
 
              Baa     0.0000    -0.000    -0.000    -0.000  1.0000  0.0000  0.0000
    29 O(17)  Bbb     0.0000    -0.000    -0.000    -0.000 -0.0000  1.0000  0.0000
              Bcc     0.0000    -0.000    -0.000    -0.000  0.0000  0.0000  1.0000
 
              Baa     0.0000     0.000     0.000     0.000  1.0000  0.0000  0.0000
    30 S(33)  Bbb     0.0000     0.000     0.000     0.000 -0.0000  1.0000  0.0000
              Bcc     0.0000     0.000     0.000     0.000  0.0000  0.0000  1.0000
 
              Baa     0.0000     0.000     0.000     0.000  1.0000  0.0000  0.0000
    31 S(33)  Bbb     0.0000     0.000     0.000     0.000 -0.0000  1.0000  0.0000
              Bcc     0.0000     0.000     0.000     0.000  0.0000  0.0000  1.0000
 
              Baa     0.0000     0.000     0.000     0.000  1.0000  0.0000  0.0000
    32 S(33)  Bbb     0.0000     0.000     0.000     0.000 -0.0000  1.0000  0.0000
              Bcc     0.0000     0.000     0.000     0.000  0.0000  0.0000  1.0000
 
              Baa     0.0000    -0.000    -0.000    -0.000  1.0000  0.0000  0.0000
    33 O(17)  Bbb     0.0000    -0.000    -0.000    -0.000 -0.0000  1.0000  0.0000
              Bcc     0.0000    -0.000    -0.000    -0.000  0.0000  0.0000  1.0000
 
              Baa     0.0000    -0.000    -0.000    -0.000  1.0000  0.0000  0.0000
    34 O(17)  Bbb     0.0000    -0.000    -0.000    -0.000 -0.0000  1.0000  0.0000
              Bcc     0.0000    -0.000    -0.000    -0.000  0.0000  0.0000  1.0000
 
              Baa     0.0000    -0.000    -0.000    -0.000  1.0000  0.0000  0.0000
    35 O(17)  Bbb     0.0000    -0.000    -0.000    -0.000 -0.0000  1.0000  0.0000
              Bcc     0.0000    -0.000    -0.000    -0.000  0.0000  0.0000  1.0000
 
              Baa     0.0000    -0.000    -0.000    -0.000  1.0000  0.0000  0.0000
    36 O(17)  Bbb     0.0000    -0.000    -0.000    -0.000 -0.0000  1.0000  0.0000
              Bcc     0.0000    -0.000    -0.000    -0.000  0.0000  0.0000  1.0000
 
              Baa     0.0000    -0.000    -0.000    -0.000  1.0000  0.0000  0.0000
    37 O(17)  Bbb     0.0000    -0.000    -0.000    -0.000 -0.0000  1.0000  0.0000
              Bcc     0.0000    -0.000    -0.000    -0.000  0.0000  0.0000  1.0000
 
              Baa     0.0000    -0.000    -0.000    -0.000  1.0000  0.0000  0.0000
    38 O(17)  Bbb     0.0000    -0.000    -0.000    -0.000 -0.0000  1.0000  0.0000
              Bcc     0.0000    -0.000    -0.000    -0.000  0.0000  0.0000  1.0000
 
              Baa     0.0000     0.000     0.000     0.000  1.0000  0.0000  0.0000
    39 C(13)  Bbb     0.0000     0.000     0.000     0.000 -0.0000  1.0000  0.0000
              Bcc     0.0000     0.000     0.000     0.000  0.0000  0.0000  1.0000
 
              Baa     0.0000     0.000     0.000     0.000  1.0000  0.0000  0.0000
    40 C(13)  Bbb     0.0000     0.000     0.000     0.000 -0.0000  1.0000  0.0000
              Bcc     0.0000     0.000     0.000     0.000  0.0000  0.0000  1.0000
 
              Baa     0.0000     0.000     0.000     0.000  1.0000  0.0000  0.0000
    41 C(13)  Bbb     0.0000     0.000     0.000     0.000 -0.0000  1.0000  0.0000
              Bcc     0.0000     0.000     0.000     0.000  0.0000  0.0000  1.0000
 
              Baa     0.0000     0.000     0.000     0.000  1.0000  0.0000  0.0000
    42 F(19)  Bbb     0.0000     0.000     0.000     0.000 -0.0000  1.0000  0.0000
              Bcc     0.0000     0.000     0.000     0.000  0.0000  0.0000  1.0000
 
              Baa     0.0000     0.000     0.000     0.000  1.0000  0.0000  0.0000
    43 F(19)  Bbb     0.0000     0.000     0.000     0.000 -0.0000  1.0000  0.0000
              Bcc     0.0000     0.000     0.000     0.000  0.0000  0.0000  1.0000
 
              Baa     0.0000     0.000     0.000     0.000  1.0000  0.0000  0.0000
    44 F(19)  Bbb     0.0000     0.000     0.000     0.000 -0.0000  1.0000  0.0000
              Bcc     0.0000     0.000     0.000     0.000  0.0000  0.0000  1.0000
 
              Baa     0.0000     0.000     0.000     0.000  1.0000  0.0000  0.0000
    45 F(19)  Bbb     0.0000     0.000     0.000     0.000 -0.0000  1.0000  0.0000
              Bcc     0.0000     0.000     0.000     0.000  0.0000  0.0000  1.0000
 
              Baa     0.0000     0.000     0.000     0.000  1.0000  0.0000  0.0000
    46 F(19)  Bbb     0.0000     0.000     0.000     0.000 -0.0000  1.0000  0.0000
              Bcc     0.0000     0.000     0.000     0.000  0.0000  0.0000  1.0000
 
              Baa     0.0000     0.000     0.000     0.000  1.0000  0.0000  0.0000
    47 F(19)  Bbb     0.0000     0.000     0.000     0.000 -0.0000  1.0000  0.0000
              Bcc     0.0000     0.000     0.000     0.000  0.0000  0.0000  1.0000
 
              Baa     0.0000     0.000     0.000     0.000  1.0000  0.0000  0.0000
    48 F(19)  Bbb     0.0000     0.000     0.000     0.000 -0.0000  1.0000  0.0000
              Bcc     0.0000     0.000     0.000     0.000  0.0000  0.0000  1.0000
 
              Baa     0.0000     0.000     0.000     0.000  1.0000  0.0000  0.0000
    49 F(19)  Bbb     0.0000     0.000     0.000     0.000 -0.0000  1.0000  0.0000
              Bcc     0.0000     0.000     0.000     0.000  0.0000  0.0000  1.0000
 
              Baa     0.0000     0.000     0.000     0.000  1.0000  0.0000  0.0000
    50 F(19)  Bbb     0.0000     0.000     0.000     0.000 -0.0000  1.0000  0.0000
              Bcc     0.0000     0.000     0.000     0.000  0.0000  0.0000  1.0000
 
              Baa     0.0000     0.000     0.000     0.000  1.0000  0.0000  0.0000
    51 C(13)  Bbb     0.0000     0.000     0.000     0.000 -0.0000  1.0000  0.0000
              Bcc     0.0000     0.000     0.000     0.000  0.0000  0.0000  1.0000
 
              Baa     0.0000     0.000     0.000     0.000  1.0000  0.0000  0.0000
    52 H(1)   Bbb     0.0000     0.000     0.000     0.000 -0.0000  1.0000  0.0000
              Bcc     0.0000     0.000     0.000     0.000  0.0000  0.0000  1.0000
 
              Baa     0.0000     0.000     0.000     0.000  1.0000  0.0000  0.0000
    53 C(13)  Bbb     0.0000     0.000     0.000     0.000 -0.0000  1.0000  0.0000
              Bcc     0.0000     0.000     0.000     0.000  0.0000  0.0000  1.0000
 
              Baa     0.0000     0.000     0.000     0.000  1.0000  0.0000  0.0000
    54 C(13)  Bbb     0.0000     0.000     0.000     0.000 -0.0000  1.0000  0.0000
              Bcc     0.0000     0.000     0.000     0.000  0.0000  0.0000  1.0000
 
              Baa     0.0000     0.000     0.000     0.000  1.0000  0.0000  0.0000
    55 C(13)  Bbb     0.0000     0.000     0.000     0.000 -0.0000  1.0000  0.0000
              Bcc     0.0000     0.000     0.000     0.000  0.0000  0.0000  1.0000
 
              Baa     0.0000     0.000     0.000     0.000  1.0000  0.0000  0.0000
    56 C(13)  Bbb     0.0000     0.000     0.000     0.000 -0.0000  1.0000  0.0000
              Bcc     0.0000     0.000     0.000     0.000  0.0000  0.0000  1.0000
 
              Baa     0.0000     0.000     0.000     0.000  1.0000  0.0000  0.0000
    57 C(13)  Bbb     0.0000     0.000     0.000     0.000 -0.0000  1.0000  0.0000
              Bcc     0.0000     0.000     0.000     0.000  0.0000  0.0000  1.0000
 
              Baa     0.0000     0.000     0.000     0.000  1.0000  0.0000  0.0000
    58 C(13)  Bbb     0.0000     0.000     0.000     0.000 -0.0000  1.0000  0.0000
              Bcc     0.0000     0.000     0.000     0.000  0.0000  0.0000  1.0000
 
              Baa     0.0000     0.000     0.000     0.000  1.0000  0.0000  0.0000
    59 H(1)   Bbb     0.0000     0.000     0.000     0.000 -0.0000  1.0000  0.0000
              Bcc     0.0000     0.000     0.000     0.000  0.0000  0.0000  1.0000
 
              Baa     0.0000     0.000     0.000     0.000  1.0000  0.0000  0.0000
    60 H(1)   Bbb     0.0000     0.000     0.000     0.000 -0.0000  1.0000  0.0000
              Bcc     0.0000     0.000     0.000     0.000  0.0000  0.0000  1.0000
 
              Baa     0.0000     0.000     0.000     0.000  1.0000  0.0000  0.0000
    61 H(1)   Bbb     0.0000     0.000     0.000     0.000 -0.0000  1.0000  0.0000
              Bcc     0.0000     0.000     0.000     0.000  0.0000  0.0000  1.0000
 
              Baa     0.0000     0.000     0.000     0.000  1.0000  0.0000  0.0000
    62 N(14)  Bbb     0.0000     0.000     0.000     0.000 -0.0000  1.0000  0.0000
              Bcc     0.0000     0.000     0.000     0.000  0.0000  0.0000  1.0000
 
              Baa     0.0000     0.000     0.000     0.000  1.0000  0.0000  0.0000
    63 N(14)  Bbb     0.0000     0.000     0.000     0.000 -0.0000  1.0000  0.0000
              Bcc     0.0000     0.000     0.000     0.000  0.0000  0.0000  1.0000
 
              Baa     0.0000     0.000     0.000     0.000  1.0000  0.0000  0.0000
    64 N(14)  Bbb     0.0000     0.000     0.000     0.000 -0.0000  1.0000  0.0000
              Bcc     0.0000     0.000     0.000     0.000  0.0000  0.0000  1.0000
 
              Baa     0.0000     0.000     0.000     0.000  1.0000  0.0000  0.0000
    65 N(14)  Bbb     0.0000     0.000     0.000     0.000 -0.0000  1.0000  0.0000
              Bcc     0.0000     0.000     0.000     0.000  0.0000  0.0000  1.0000
 
              Baa     0.0000     0.000     0.000     0.000  1.0000  0.0000  0.0000
    66 C(13)  Bbb     0.0000     0.000     0.000     0.000 -0.0000  1.0000  0.0000
              Bcc     0.0000     0.000     0.000     0.000  0.0000  0.0000  1.0000
 
              Baa     0.0000     0.000     0.000     0.000  1.0000  0.0000  0.0000
    67 H(1)   Bbb     0.0000     0.000     0.000     0.000 -0.0000  1.0000  0.0000
              Bcc     0.0000     0.000     0.000     0.000  0.0000  0.0000  1.0000
 
              Baa     0.0000     0.000     0.000     0.000  1.0000  0.0000  0.0000
    68 Lu(175 Bbb     0.0000     0.000     0.000     0.000 -0.0000  1.0000  0.0000
              Bcc     0.0000     0.000     0.000     0.000  0.0000  0.0000  1.0000
 
              Baa     0.0000    -0.000    -0.000    -0.000  1.0000  0.0000  0.0000
    69 O(17)  Bbb     0.0000    -0.000    -0.000    -0.000 -0.0000  1.0000  0.0000
              Bcc     0.0000    -0.000    -0.000    -0.000  0.0000  0.0000  1.0000
 

 ---------------------------------------------------------------------------------

 No NMR shielding tensors so no spin-rotation constants.
 Leave Link  601 at Wed Apr 30 19:06:44 2025, MaxMem= 12348030976 cpu:              36.1 elap:               1.6
 (Enter /sysapps/ubuntu-applications/gaussian-new/avx/g16/l9999.exe)

 This type of calculation cannot be archived.


 YOU CAN WIPE THE SLATE CLEAN, BUT YOU'LL STILL
 HAVE TO EAT A LITTLE CHALK DUST.
 Job cpu time:      11 days  7 hours 20 minutes 50.6 seconds.
 Elapsed time:       0 days 11 hours 25 minutes 46.1 seconds.
 File lengths (MBytes):  RWF=  13916 Int=      0 D2E=      0 Chk=    136 Scr=      8
 Normal termination of Gaussian 16 at Wed Apr 30 19:06:44 2025.
