 Entering Gaussian System, Link 0=/sysapps/ubuntu-applications/gaussian-new/avx/g16//g16
 Input=i3-maj.in
 Output=i3-maj.log
 Initial command:
 /sysapps/ubuntu-applications/gaussian-new/avx/g16/l1.exe "/data/temp-scratch/selhajj1/7554732/Gau-1353909.inp" -scrdir="/data/temp-scratch/selhajj1/7554732/"
 Entering Link 1 = /sysapps/ubuntu-applications/gaussian-new/avx/g16/l1.exe PID=   1353911.
  
 Copyright (c) 1988,1990,1992,1993,1995,1998,2003,2009,2016,
            Gaussian, Inc.  All Rights Reserved.
  
 This is part of the Gaussian(R) 16 program.  It is based on
 the Gaussian(R) 09 system (copyright 2009, Gaussian, Inc.),
 the Gaussian(R) 03 system (copyright 2003, Gaussian, Inc.),
 the Gaussian(R) 98 system (copyright 1998, Gaussian, Inc.),
 the Gaussian(R) 94 system (copyright 1995, Gaussian, Inc.),
 the Gaussian 92(TM) system (copyright 1992, Gaussian, Inc.),
 the Gaussian 90(TM) system (copyright 1990, Gaussian, Inc.),
 the Gaussian 88(TM) system (copyright 1988, Gaussian, Inc.),
 the Gaussian 86(TM) system (copyright 1986, Carnegie Mellon
 University), and the Gaussian 82(TM) system (copyright 1983,
 Carnegie Mellon University). Gaussian is a federally registered
 trademark of Gaussian, Inc.
  
 This software contains proprietary and confidential information,
 including trade secrets, belonging to Gaussian, Inc.
  
 This software is provided under written license and may be
 used, copied, transmitted, or stored only in accord with that
 written license.
  
 The following legend is applicable only to US Government
 contracts under FAR:
  
                    RESTRICTED RIGHTS LEGEND
  
 Use, reproduction and disclosure by the US Government is
 subject to restrictions as set forth in subparagraphs (a)
 and (c) of the Commercial Computer Software - Restricted
 Rights clause in FAR 52.227-19.
  
 Gaussian, Inc.
 340 Quinnipiac St., Bldg. 40, Wallingford CT 06492
  
  
 ---------------------------------------------------------------
 Warning -- This program may not be used in any manner that
 competes with the business of Gaussian, Inc. or will provide
 assistance to any competitor of Gaussian, Inc.  The licensee
 of this program is prohibited from giving any competitor of
 Gaussian, Inc. access to this program.  By using this program,
 the user acknowledges that Gaussian, Inc. is engaged in the
 business of creating and licensing software in the field of
 computational chemistry and represents and warrants to the
 licensee that it is not a competitor of Gaussian, Inc. and that
 it will not use this program in any manner prohibited above.
 ---------------------------------------------------------------
  

 Cite this work as:
 Gaussian 16, Revision A.03,
 M. J. Frisch, G. W. Trucks, H. B. Schlegel, G. E. Scuseria, 
 M. A. Robb, J. R. Cheeseman, G. Scalmani, V. Barone, 
 G. A. Petersson, H. Nakatsuji, X. Li, M. Caricato, A. V. Marenich, 
 J. Bloino, B. G. Janesko, R. Gomperts, B. Mennucci, H. P. Hratchian, 
 J. V. Ortiz, A. F. Izmaylov, J. L. Sonnenberg, D. Williams-Young, 
 F. Ding, F. Lipparini, F. Egidi, J. Goings, B. Peng, A. Petrone, 
 T. Henderson, D. Ranasinghe, V. G. Zakrzewski, J. Gao, N. Rega, 
 G. Zheng, W. Liang, M. Hada, M. Ehara, K. Toyota, R. Fukuda, 
 J. Hasegawa, M. Ishida, T. Nakajima, Y. Honda, O. Kitao, H. Nakai, 
 T. Vreven, K. Throssell, J. A. Montgomery, Jr., J. E. Peralta, 
 F. Ogliaro, M. J. Bearpark, J. J. Heyd, E. N. Brothers, K. N. Kudin, 
 V. N. Staroverov, T. A. Keith, R. Kobayashi, J. Normand, 
 K. Raghavachari, A. P. Rendell, J. C. Burant, S. S. Iyengar, 
 J. Tomasi, M. Cossi, J. M. Millam, M. Klene, C. Adamo, R. Cammi, 
 J. W. Ochterski, R. L. Martin, K. Morokuma, O. Farkas, 
 J. B. Foresman, and D. J. Fox, Gaussian, Inc., Wallingford CT, 2016.
 
 ******************************************
 Gaussian 16:  ES64L-G16RevA.03 25-Dec-2016
                 9-Feb-2025 
 ******************************************
 %chk=i3-maj.chk
 %mem=616Gb
 %nprocshared=24
 Will use up to   24 processors via shared memory.
 -------------------------------------------------------------------
 #P MN15/gen scf=(maxcyc=500) freq scrf=(smd,solvent=DiChloroEthane)
 -------------------------------------------------------------------
 1/10=4,30=1,38=1/1,3;
 2/12=2,17=6,18=5,40=1/2;
 3/5=7,11=2,25=1,30=1,70=32201,71=2,72=10,74=-73,140=1/1,2,3;
 4//1;
 5/5=2,7=500,38=5,53=10,98=1/2;
 8/6=4,10=90,11=11/1;
 11/6=1,8=1,9=11,15=111,16=1/1,2,10;
 10/6=1/2;
 6/7=2,8=2,9=2,10=2,28=1/1;
 7/8=1,10=1,25=1/1,2,3,16;
 1/10=4,30=1/3;
 99//99;
 Leave Link    1 at Sun Feb  9 14:28:20 2025, MaxMem= 82678120448 cpu:               9.4 elap:               0.5
 (Enter /sysapps/ubuntu-applications/gaussian-new/avx/g16/l101.exe)
 ----
 Freq
 ----
 Symbolic Z-matrix:
 Charge =  0 Multiplicity = 1
 C                     5.52477  -0.76852   0.09492 
 C                     5.80226  -1.60247   1.18818 
 C                     6.95371  -2.3931    1.19984 
 C                     7.84029  -2.36248   0.12166 
 C                     7.57184  -1.53584  -0.97217 
 C                     6.42214  -0.746    -0.98324 
 C                     1.76532   0.32107   0.64495 
 C                     1.14616   0.50651  -0.7299 
 C                     0.74004  -0.25259   1.60396 
 H                     5.12358  -1.64292   2.04351 
 H                     7.15602  -3.03795   2.05785 
 H                     8.73854  -2.98393   0.13241 
 H                     8.25783  -1.50761  -1.82163 
 H                     6.20946  -0.09982  -1.83984 
 O                    -0.44708   0.10603   1.6012 
 O                    -0.03123   0.30756  -1.03572 
 O                     1.99239   0.95807  -1.6016 
 O                     1.19201  -1.07955   2.48471 
 C                     1.49318   1.33952  -2.89606 
 C                     0.24482  -1.6662    3.39927 
 H                     2.33188   1.81255  -3.41513 
 H                     0.65827   2.04317  -2.7704 
 H                     1.15094   0.44784  -3.43614 
 H                     0.80962  -2.39051   3.99276 
 H                    -0.54971  -2.15972   2.82328 
 H                    -0.18204  -0.88371   4.0394 
 O                    -3.49136   0.34578   1.35889 
 O                    -2.93907   0.73058  -1.54162 
 O                    -0.28901  -2.14222   0.09074 
 S                    -0.95435  -2.75643  -1.0906 
 S                    -3.84596  -1.02908   1.84235 
 S                    -2.72568   2.15338  -1.10069 
 O                    -2.04961  -1.79947  -1.4668 
 O                    -1.28633  -4.15535  -1.04186 
 O                    -2.75603  -1.88349   1.27386 
 O                    -4.2065   -1.19783   3.22193 
 O                    -1.85187   2.03328   0.09897 
 O                    -2.35748   3.11032  -2.11273 
 C                    -4.39794   2.68799  -0.45552 
 C                    -5.30861  -1.45643   0.80836 
 C                     0.2725   -2.56683  -2.49298 
 F                    -4.2658    3.14243   0.77289 
 F                    -5.2339    1.6691   -0.47051 
 F                    -4.85874   3.64548  -1.23594 
 F                    -4.96618  -1.3045   -0.45984 
 F                    -6.30469  -0.6469    1.10329 
 F                    -5.65906  -2.70584   1.031 
 F                     1.41284  -2.07866  -2.02395 
 F                    -0.20746  -1.74026  -3.40059 
 F                     0.49349  -3.74481  -3.03359 
 C                     4.30472   0.12824   0.04254 
 H                     4.1394    0.41441  -1.00563 
 C                     4.52566   1.49894   0.76391 
 C                     5.68796   2.19772   0.17694 
 C                     4.80861   1.28303   2.20537 
 C                     0.99654   2.75636   1.02545 
 C                     2.30401   3.85579  -0.69072 
 C                     1.07404   3.70136   0.07305 
 H                     0.09885   2.62442   1.63043 
 H                     2.37681   4.57367  -1.51113 
 H                     0.23486   4.37168  -0.12147 
 N                     6.64702   2.67053  -0.26434 
 N                     4.99356   1.07722   3.3291 
 N                     3.32962   2.32171   0.63056 
 N                     3.36573   3.1839   -0.41181 
 C                     2.11991   1.78116   1.21803 
 H                     2.31214   1.60539   2.29276 
 Sc                   -1.81481  -0.25776   0.03443 
 C                     3.05263  -0.53331   0.62519 
 H                     2.86078  -1.47977   0.09879 
 H                     3.25537  -0.79127   1.67464 
 
 ITRead=  0  0  0  0  0  0  0  0  0  0  0  0  0  0  0  0  0  0  0  0
 ITRead=  0  0  0  0  0  0  0  0  0  0  0  0  0  0  0  0  0  0  0  0
 ITRead=  0  0  0  0  0  0  0  0  0  0  0  0  0  0  0  0  0  0  0  0
 ITRead=  0  0  0  0  0  0  0  0  0  0  0
 MicOpt= -1 -1 -1 -1 -1 -1 -1 -1 -1 -1 -1 -1 -1 -1 -1 -1 -1 -1 -1 -1
 MicOpt= -1 -1 -1 -1 -1 -1 -1 -1 -1 -1 -1 -1 -1 -1 -1 -1 -1 -1 -1 -1
 MicOpt= -1 -1 -1 -1 -1 -1 -1 -1 -1 -1 -1 -1 -1 -1 -1 -1 -1 -1 -1 -1
 MicOpt= -1 -1 -1 -1 -1 -1 -1 -1 -1 -1 -1
 NAtoms=     71 NQM=       71 NQMF=       0 NMMI=      0 NMMIF=      0
                NMic=       0 NMicF=      0.
                    Isotopes and Nuclear Properties:
 (Nuclear quadrupole moments (NQMom) in fm**2, nuclear magnetic moments (NMagM)
  in nuclear magnetons)

  Atom         1           2           3           4           5           6           7           8           9          10
 IAtWgt=          12          12          12          12          12          12          12          12          12           1
 AtmWgt=  12.0000000  12.0000000  12.0000000  12.0000000  12.0000000  12.0000000  12.0000000  12.0000000  12.0000000   1.0078250
 NucSpn=           0           0           0           0           0           0           0           0           0           1
 AtZEff=  -0.0000000  -0.0000000  -0.0000000  -0.0000000  -0.0000000  -0.0000000  -0.0000000  -0.0000000  -0.0000000  -0.0000000
 NQMom=    0.0000000   0.0000000   0.0000000   0.0000000   0.0000000   0.0000000   0.0000000   0.0000000   0.0000000   0.0000000
 NMagM=    0.0000000   0.0000000   0.0000000   0.0000000   0.0000000   0.0000000   0.0000000   0.0000000   0.0000000   2.7928460
 AtZNuc=   6.0000000   6.0000000   6.0000000   6.0000000   6.0000000   6.0000000   6.0000000   6.0000000   6.0000000   1.0000000

  Atom        11          12          13          14          15          16          17          18          19          20
 IAtWgt=           1           1           1           1          16          16          16          16          12          12
 AtmWgt=   1.0078250   1.0078250   1.0078250   1.0078250  15.9949146  15.9949146  15.9949146  15.9949146  12.0000000  12.0000000
 NucSpn=           1           1           1           1           0           0           0           0           0           0
 AtZEff=  -0.0000000  -0.0000000  -0.0000000  -0.0000000  -0.0000000  -0.0000000  -0.0000000  -0.0000000  -0.0000000  -0.0000000
 NQMom=    0.0000000   0.0000000   0.0000000   0.0000000   0.0000000   0.0000000   0.0000000   0.0000000   0.0000000   0.0000000
 NMagM=    2.7928460   2.7928460   2.7928460   2.7928460   0.0000000   0.0000000   0.0000000   0.0000000   0.0000000   0.0000000
 AtZNuc=   1.0000000   1.0000000   1.0000000   1.0000000   8.0000000   8.0000000   8.0000000   8.0000000   6.0000000   6.0000000

  Atom        21          22          23          24          25          26          27          28          29          30
 IAtWgt=           1           1           1           1           1           1          16          16          16          32
 AtmWgt=   1.0078250   1.0078250   1.0078250   1.0078250   1.0078250   1.0078250  15.9949146  15.9949146  15.9949146  31.9720718
 NucSpn=           1           1           1           1           1           1           0           0           0           0
 AtZEff=  -0.0000000  -0.0000000  -0.0000000  -0.0000000  -0.0000000  -0.0000000  -0.0000000  -0.0000000  -0.0000000  -0.0000000
 NQMom=    0.0000000   0.0000000   0.0000000   0.0000000   0.0000000   0.0000000   0.0000000   0.0000000   0.0000000   0.0000000
 NMagM=    2.7928460   2.7928460   2.7928460   2.7928460   2.7928460   2.7928460   0.0000000   0.0000000   0.0000000   0.0000000
 AtZNuc=   1.0000000   1.0000000   1.0000000   1.0000000   1.0000000   1.0000000   8.0000000   8.0000000   8.0000000  16.0000000

  Atom        31          32          33          34          35          36          37          38          39          40
 IAtWgt=          32          32          16          16          16          16          16          16          12          12
 AtmWgt=  31.9720718  31.9720718  15.9949146  15.9949146  15.9949146  15.9949146  15.9949146  15.9949146  12.0000000  12.0000000
 NucSpn=           0           0           0           0           0           0           0           0           0           0
 AtZEff=  -0.0000000  -0.0000000  -0.0000000  -0.0000000  -0.0000000  -0.0000000  -0.0000000  -0.0000000  -0.0000000  -0.0000000
 NQMom=    0.0000000   0.0000000   0.0000000   0.0000000   0.0000000   0.0000000   0.0000000   0.0000000   0.0000000   0.0000000
 NMagM=    0.0000000   0.0000000   0.0000000   0.0000000   0.0000000   0.0000000   0.0000000   0.0000000   0.0000000   0.0000000
 AtZNuc=  16.0000000  16.0000000   8.0000000   8.0000000   8.0000000   8.0000000   8.0000000   8.0000000   6.0000000   6.0000000

  Atom        41          42          43          44          45          46          47          48          49          50
 IAtWgt=          12          19          19          19          19          19          19          19          19          19
 AtmWgt=  12.0000000  18.9984032  18.9984032  18.9984032  18.9984032  18.9984032  18.9984032  18.9984032  18.9984032  18.9984032
 NucSpn=           0           1           1           1           1           1           1           1           1           1
 AtZEff=  -0.0000000  -0.0000000  -0.0000000  -0.0000000  -0.0000000  -0.0000000  -0.0000000  -0.0000000  -0.0000000  -0.0000000
 NQMom=    0.0000000   0.0000000   0.0000000   0.0000000   0.0000000   0.0000000   0.0000000   0.0000000   0.0000000   0.0000000
 NMagM=    0.0000000   2.6288670   2.6288670   2.6288670   2.6288670   2.6288670   2.6288670   2.6288670   2.6288670   2.6288670
 AtZNuc=   6.0000000   9.0000000   9.0000000   9.0000000   9.0000000   9.0000000   9.0000000   9.0000000   9.0000000   9.0000000

  Atom        51          52          53          54          55          56          57          58          59          60
 IAtWgt=          12           1          12          12          12          12          12          12           1           1
 AtmWgt=  12.0000000   1.0078250  12.0000000  12.0000000  12.0000000  12.0000000  12.0000000  12.0000000   1.0078250   1.0078250
 NucSpn=           0           1           0           0           0           0           0           0           1           1
 AtZEff=  -0.0000000  -0.0000000  -0.0000000  -0.0000000  -0.0000000  -0.0000000  -0.0000000  -0.0000000  -0.0000000  -0.0000000
 NQMom=    0.0000000   0.0000000   0.0000000   0.0000000   0.0000000   0.0000000   0.0000000   0.0000000   0.0000000   0.0000000
 NMagM=    0.0000000   2.7928460   0.0000000   0.0000000   0.0000000   0.0000000   0.0000000   0.0000000   2.7928460   2.7928460
 AtZNuc=   6.0000000   1.0000000   6.0000000   6.0000000   6.0000000   6.0000000   6.0000000   6.0000000   1.0000000   1.0000000

  Atom        61          62          63          64          65          66          67          68          69          70
 IAtWgt=           1          14          14          14          14          12           1          45          12           1
 AtmWgt=   1.0078250  14.0030740  14.0030740  14.0030740  14.0030740  12.0000000   1.0078250  44.9559136  12.0000000   1.0078250
 NucSpn=           1           2           2           2           2           0           1           7           0           1
 AtZEff=  -0.0000000  -0.0000000  -0.0000000  -0.0000000  -0.0000000  -0.0000000  -0.0000000  -0.0000000  -0.0000000  -0.0000000
 NQMom=    0.0000000   2.0440000   2.0440000   2.0440000   2.0440000   0.0000000   0.0000000 -22.0000000   0.0000000   0.0000000
 NMagM=    2.7928460   0.4037610   0.4037610   0.4037610   0.4037610   0.0000000   2.7928460   4.7564830   0.0000000   2.7928460
 AtZNuc=   1.0000000   7.0000000   7.0000000   7.0000000   7.0000000   6.0000000   1.0000000  21.0000000   6.0000000   1.0000000

  Atom        71
 IAtWgt=           1
 AtmWgt=   1.0078250
 NucSpn=           1
 AtZEff=  -0.0000000
 NQMom=    0.0000000
 NMagM=    2.7928460
 AtZNuc=   1.0000000
 Leave Link  101 at Sun Feb  9 14:28:20 2025, MaxMem= 82678120448 cpu:               3.7 elap:               0.2
 (Enter /sysapps/ubuntu-applications/gaussian-new/avx/g16/l103.exe)

 GradGradGradGradGradGradGradGradGradGradGradGradGradGradGradGradGradGrad
 Berny optimization.
 Initialization pass.
 Trust Radius=3.00D-01 FncErr=1.00D-07 GrdErr=1.00D-07 EigMax=2.50D+02 EigMin=1.00D-04
 Number of steps in this run=      2 maximum allowed number of steps=      2.
 GradGradGradGradGradGradGradGradGradGradGradGradGradGradGradGradGradGrad

 Leave Link  103 at Sun Feb  9 14:28:20 2025, MaxMem= 82678120448 cpu:               1.6 elap:               0.1
 (Enter /sysapps/ubuntu-applications/gaussian-new/avx/g16/l202.exe)
 Stoichiometry    C23H18F9N4O13S3Sc
 Framework group  C1[X(C23H18F9N4O13S3Sc)]
 Deg. of freedom   207
 Full point group                 C1      NOp   1
 Largest Abelian subgroup         C1      NOp   1
 Largest concise Abelian subgroup C1      NOp   1
                         Standard orientation:                         
 ---------------------------------------------------------------------
 Center     Atomic      Atomic             Coordinates (Angstroms)
 Number     Number       Type             X           Y           Z
 ---------------------------------------------------------------------
      1          6           0        5.524765   -0.768515    0.094916
      2          6           0        5.802258   -1.602469    1.188177
      3          6           0        6.953705   -2.393096    1.199844
      4          6           0        7.840288   -2.362479    0.121658
      5          6           0        7.571837   -1.535841   -0.972169
      6          6           0        6.422138   -0.745996   -0.983239
      7          6           0        1.765315    0.321068    0.644949
      8          6           0        1.146164    0.506506   -0.729895
      9          6           0        0.740038   -0.252586    1.603964
     10          1           0        5.123584   -1.642921    2.043506
     11          1           0        7.156018   -3.037953    2.057850
     12          1           0        8.738544   -2.983927    0.132408
     13          1           0        8.257832   -1.507605   -1.821633
     14          1           0        6.209464   -0.099815   -1.839837
     15          8           0       -0.447077    0.106034    1.601204
     16          8           0       -0.031228    0.307559   -1.035724
     17          8           0        1.992394    0.958070   -1.601603
     18          8           0        1.192011   -1.079546    2.484708
     19          6           0        1.493182    1.339522   -2.896061
     20          6           0        0.244819   -1.666204    3.399269
     21          1           0        2.331883    1.812546   -3.415134
     22          1           0        0.658272    2.043167   -2.770399
     23          1           0        1.150944    0.447842   -3.436144
     24          1           0        0.809616   -2.390505    3.992758
     25          1           0       -0.549707   -2.159719    2.823283
     26          1           0       -0.182041   -0.883714    4.039401
     27          8           0       -3.491360    0.345777    1.358891
     28          8           0       -2.939073    0.730580   -1.541620
     29          8           0       -0.289013   -2.142215    0.090743
     30         16           0       -0.954347   -2.756426   -1.090597
     31         16           0       -3.845961   -1.029081    1.842353
     32         16           0       -2.725675    2.153377   -1.100688
     33          8           0       -2.049613   -1.799474   -1.466803
     34          8           0       -1.286332   -4.155350   -1.041856
     35          8           0       -2.756029   -1.883485    1.273860
     36          8           0       -4.206497   -1.197826    3.221931
     37          8           0       -1.851869    2.033279    0.098972
     38          8           0       -2.357476    3.110324   -2.112726
     39          6           0       -4.397937    2.687992   -0.455519
     40          6           0       -5.308610   -1.456427    0.808360
     41          6           0        0.272496   -2.566833   -2.492980
     42          9           0       -4.265802    3.142433    0.772890
     43          9           0       -5.233901    1.669096   -0.470505
     44          9           0       -4.858735    3.645482   -1.235940
     45          9           0       -4.966175   -1.304504   -0.459844
     46          9           0       -6.304694   -0.646897    1.103291
     47          9           0       -5.659060   -2.705838    1.030999
     48          9           0        1.412842   -2.078665   -2.023950
     49          9           0       -0.207457   -1.740255   -3.400588
     50          9           0        0.493494   -3.744812   -3.033594
     51          6           0        4.304718    0.128235    0.042538
     52          1           0        4.139399    0.414412   -1.005631
     53          6           0        4.525658    1.498940    0.763910
     54          6           0        5.687962    2.197716    0.176939
     55          6           0        4.808612    1.283034    2.205372
     56          6           0        0.996535    2.756362    1.025449
     57          6           0        2.304007    3.855786   -0.690724
     58          6           0        1.074039    3.701360    0.073050
     59          1           0        0.098846    2.624424    1.630431
     60          1           0        2.376813    4.573669   -1.511127
     61          1           0        0.234859    4.371681   -0.121472
     62          7           0        6.647023    2.670534   -0.264344
     63          7           0        4.993562    1.077218    3.329101
     64          7           0        3.329617    2.321713    0.630564
     65          7           0        3.365729    3.183896   -0.411810
     66          6           0        2.119908    1.781159    1.218027
     67          1           0        2.312139    1.605385    2.292760
     68         21           0       -1.814805   -0.257764    0.034434
     69          6           0        3.052634   -0.533314    0.625186
     70          1           0        2.860776   -1.479773    0.098794
     71          1           0        3.255375   -0.791272    1.674642
 ---------------------------------------------------------------------
 Rotational constants (GHZ):           0.0864063           0.0356465           0.0320315
 Leave Link  202 at Sun Feb  9 14:28:20 2025, MaxMem= 82678120448 cpu:               2.3 elap:               0.2
 (Enter /sysapps/ubuntu-applications/gaussian-new/avx/g16/l301.exe)
 General basis read from cards:  (5D, 7F)
 Centers:      10     11     12     13     14     21     22     23     24     25
 Centers:      26     52     59     60     61     67     70     71
 S 3 1.00
     Exponent=  1.3010701000D+01 Coefficients=  1.9682158000D-02
     Exponent=  1.9622572000D+00 Coefficients=  1.3796524000D-01
     Exponent=  4.4453796000D-01 Coefficients=  4.7831935000D-01
 S 1 1.00
     Exponent=  1.2194962000D-01 Coefficients=  1.0000000000D+00
 P 1 1.00
     Exponent=  8.0000000000D-01 Coefficients=  1.0000000000D+00
 ****
 Centers:       1      2      3      4      5      6      7      8      9     19
 Centers:      20     39     40     41     51     53     54     55     56     57
 Centers:      58     66     69
 S 5 1.00
     Exponent=  1.2384016938D+03 Coefficients=  5.4568832082D-03
     Exponent=  1.8629004992D+02 Coefficients=  4.0638409211D-02
     Exponent=  4.2251176346D+01 Coefficients=  1.8025593888D-01
     Exponent=  1.1676557932D+01 Coefficients=  4.6315121755D-01
     Exponent=  3.5930506482D+00 Coefficients=  4.4087173314D-01
 S 1 1.00
     Exponent=  4.0245147363D-01 Coefficients=  1.0000000000D+00
 S 1 1.00
     Exponent=  1.3090182668D-01 Coefficients=  1.0000000000D+00
 P 3 1.00
     Exponent=  9.4680970621D+00 Coefficients=  3.8387871728D-02
     Exponent=  2.0103545142D+00 Coefficients=  2.1117025112D-01
     Exponent=  5.4771004707D-01 Coefficients=  5.1328172114D-01
 P 1 1.00
     Exponent=  1.5268613795D-01 Coefficients=  1.0000000000D+00
 D 1 1.00
     Exponent=  8.0000000000D-01 Coefficients=  1.0000000000D+00
 ****
 Centers:      62     63     64     65
 S 5 1.00
     Exponent=  1.7128415853D+03 Coefficients= -5.3934125305D-03
     Exponent=  2.5764812677D+02 Coefficients= -4.0221581118D-02
     Exponent=  5.8458245853D+01 Coefficients= -1.7931144990D-01
     Exponent=  1.6198367905D+01 Coefficients= -4.6376317823D-01
     Exponent=  5.0052600809D+00 Coefficients= -4.4171422662D-01
 S 1 1.00
     Exponent=  5.8731856571D-01 Coefficients=  1.0000000000D+00
 S 1 1.00
     Exponent=  1.8764592253D-01 Coefficients=  1.0000000000D+00
 P 3 1.00
     Exponent=  1.3571470233D+01 Coefficients= -4.0072398852D-02
     Exponent=  2.9257372874D+00 Coefficients= -2.1807045028D-01
     Exponent=  7.9927750754D-01 Coefficients= -5.1294466049D-01
 P 1 1.00
     Exponent=  2.1954348034D-01 Coefficients=  1.0000000000D+00
 D 1 1.00
     Exponent=  1.0000000000D+00 Coefficients=  1.0000000000D+00
 ****
 Centers:      15     16     17     18     27     28     29     33     34     35
 Centers:      36     37     38
 S 5 1.00
     Exponent=  2.2661767785D+03 Coefficients= -5.3431809926D-03
     Exponent=  3.4087010191D+02 Coefficients= -3.9890039230D-02
     Exponent=  7.7363135167D+01 Coefficients= -1.7853911985D-01
     Exponent=  2.1479644940D+01 Coefficients= -4.6427684959D-01
     Exponent=  6.6589433124D+00 Coefficients= -4.4309745172D-01
 S 1 1.00
     Exponent=  8.0975975668D-01 Coefficients=  1.0000000000D+00
 S 1 1.00
     Exponent=  2.5530772234D-01 Coefficients=  1.0000000000D+00
 P 3 1.00
     Exponent=  1.7721504317D+01 Coefficients=  4.3394573193D-02
     Exponent=  3.8635505440D+00 Coefficients=  2.3094120765D-01
     Exponent=  1.0480920883D+00 Coefficients=  5.1375311064D-01
 P 1 1.00
     Exponent=  2.7641544411D-01 Coefficients=  1.0000000000D+00
 D 1 1.00
     Exponent=  1.2000000000D+00 Coefficients=  1.0000000000D+00
 ****
 Centers:      42     43     44     45     46     47     48     49     50
 S 5 1.00
     Exponent=  2.8948325990D+03 Coefficients= -5.3408255515D-03
     Exponent=  4.3541939120D+02 Coefficients= -3.9904258866D-02
     Exponent=  9.8843328866D+01 Coefficients= -1.7912768038D-01
     Exponent=  2.7485198001D+01 Coefficients= -4.6758090825D-01
     Exponent=  8.5405498171D+00 Coefficients= -4.4653131020D-01
 S 1 1.00
     Exponent=  1.0654578038D+00 Coefficients=  1.0000000000D+00
 S 1 1.00
     Exponent=  3.3247346748D-01 Coefficients=  1.0000000000D+00
 P 3 1.00
     Exponent=  2.2696633924D+01 Coefficients= -4.5212874436D-02
     Exponent=  4.9872339257D+00 Coefficients= -2.3754317067D-01
     Exponent=  1.3491613954D+00 Coefficients= -5.1287353587D-01
 P 1 1.00
     Exponent=  3.4829881977D-01 Coefficients=  1.0000000000D+00
 D 1 1.00
     Exponent=  1.4000000000D+00 Coefficients=  1.0000000000D+00
 ****
 Centers:      30     31     32
 S 5 1.00
     Exponent=  9.1849303010D+03 Coefficients= -2.2294387756D-03
     Exponent=  1.3815105503D+03 Coefficients= -1.6683029937D-02
     Exponent=  3.1387147580D+02 Coefficients= -7.5262436116D-02
     Exponent=  8.8053870623D+01 Coefficients= -1.9376827038D-01
     Exponent=  2.7039914905D+01 Coefficients= -1.7718020803D-01
 S 3 1.00
     Exponent=  4.5648731303D+01 Coefficients= -1.0736062573D-01
     Exponent=  4.9664522326D+00 Coefficients=  6.5066293018D-01
     Exponent=  2.0116242047D+00 Coefficients=  5.9712155354D-01
 S 1 1.00
     Exponent=  3.5661077013D-01 Coefficients=  1.0000000000D+00
 S 1 1.00
     Exponent=  1.3507221477D-01 Coefficients=  1.0000000000D+00
 P 5 1.00
     Exponent=  2.6198233439D+02 Coefficients= -9.2729929822D-03
     Exponent=  6.1306894736D+01 Coefficients= -6.6547669241D-02
     Exponent=  1.9103729887D+01 Coefficients= -2.4828595903D-01
     Exponent=  6.6567720378D+00 Coefficients= -4.8703847402D-01
     Exponent=  2.3959635161D+00 Coefficients= -3.9337850312D-01
 P 1 1.00
     Exponent=  6.1776161679D-01 Coefficients=  1.0000000000D+00
 P 1 1.00
     Exponent=  1.6993376871D-01 Coefficients=  1.0000000000D+00
 D 1 1.00
     Exponent=  5.5000000000D-01 Coefficients=  1.0000000000D+00
 ****
 Centers:      68
 S 8 1.00
     Exponent=  1.9161291874D+05 Coefficients=  2.3076475942D-04
     Exponent=  2.8723850363D+04 Coefficients=  1.7890329946D-03
     Exponent=  6.5370116490D+03 Coefficients=  9.2990401140D-03
     Exponent=  1.8503097171D+03 Coefficients=  3.7739438011D-02
     Exponent=  6.0238855156D+02 Coefficients=  1.2227148359D-01
     Exponent=  2.1617324766D+02 Coefficients=  2.8814821470D-01
     Exponent=  8.3712517880D+01 Coefficients=  4.0517543099D-01
     Exponent=  3.2908707189D+01 Coefficients=  2.0566019623D-01
 S 4 1.00
     Exponent=  2.1134393234D+02 Coefficients= -2.4527991462D-02
     Exponent=  6.5128920139D+01 Coefficients= -1.1570158142D-01
     Exponent=  1.0034311535D+01 Coefficients=  5.5995283317D-01
     Exponent=  4.1596884597D+00 Coefficients=  5.6087765073D-01
 S 2 1.00
     Exponent=  6.0009041613D+00 Coefficients= -2.2840494325D-01
     Exponent=  9.8255784150D-01 Coefficients=  7.1948970378D-01
 S 1 1.00
     Exponent=  4.2483192773D-01 Coefficients=  1.0000000000D+00
 S 1 1.00
     Exponent=  7.7185462096D-02 Coefficients=  1.0000000000D+00
 S 1 1.00
     Exponent=  3.0147219702D-02 Coefficients=  1.0000000000D+00
 P 6 1.00
     Exponent=  9.4734122823D+02 Coefficients=  2.4737208744D-03
     Exponent=  2.2409699732D+02 Coefficients=  1.9742967060D-02
     Exponent=  7.1560334882D+01 Coefficients=  9.0357147549D-02
     Exponent=  2.6444824490D+01 Coefficients=  2.5201602503D-01
     Exponent=  1.0393798285D+01 Coefficients=  3.9675535929D-01
     Exponent=  4.1606304559D+00 Coefficients=  2.3208624517D-01
 P 3 1.00
     Exponent=  1.5565737135D+01 Coefficients= -2.7129423974D-02
     Exponent=  2.1121544865D+00 Coefficients=  5.5109256629D-01
     Exponent=  8.4184709021D-01 Coefficients=  1.0090635806D+00
 P 1 1.00
     Exponent=  3.2297542652D-01 Coefficients=  1.0000000000D+00
 P 1 1.00
     Exponent=  8.9748000000D-02 Coefficients=  1.0000000000D+00
 D 4 1.00
     Exponent=  3.0989390993D+01 Coefficients=  1.1902837431D-02
     Exponent=  8.6905465069D+00 Coefficients=  6.7655856850D-02
     Exponent=  2.9520256337D+00 Coefficients=  2.1332539722D-01
     Exponent=  1.0761910745D+00 Coefficients=  3.8391075578D-01
 D 1 1.00
     Exponent=  3.8338915095D-01 Coefficients=  4.3354716259D-01
 D 1 1.00
     Exponent=  1.2534686113D-01 Coefficients=  2.4509263822D-01
 D 1 1.00
     Exponent=  4.1000000000D-02 Coefficients=  1.0000000000D+00
 F 1 1.00
     Exponent=  3.4500000000D-01 Coefficients=  1.0000000000D+00
 ****
 Ernie: Thresh=  0.10000D-02 Tol=  0.10000D-05 Strict=F.
 There are   934 symmetry adapted cartesian basis functions of A   symmetry.
 There are   875 symmetry adapted basis functions of A   symmetry.
   875 basis functions,  1564 primitive gaussians,   934 cartesian basis functions
   219 alpha electrons      219 beta electrons
       nuclear repulsion energy     10701.7706299351 Hartrees.
 IExCor= 7252 DFT=T Ex+Corr=MN15 ExCW=0 ScaHFX=  0.440000
 ScaDFX=  1.000000  1.000000  1.000000  1.000000 ScalE2=  1.000000  1.000000
 IRadAn=      5 IRanWt=     -1 IRanGd=            0 ICorTp=0 IEmpDi=  4
 NAtoms=   71 NActive=   71 NUniq=   71 SFac= 1.00D+00 NAtFMM=   60 NAOKFM=T Big=T
 Integral buffers will be    131072 words long.
 Raffenetti 2 integral format.
 Two-electron integral symmetry is turned on.
 Force inversion solution in PCM.
 ------------------------------------------------------------------------------
 Polarizable Continuum Model (PCM)
 =================================
 Model                : PCM.
 Atomic radii         : SMD-Coulomb.
 Polarization charges : Total charges.
 Charge compensation  : None.
 Solution method      : Matrix inversion.
 Cavity type          : VdW (van der Waals Surface) (Alpha=1.000).
 Cavity algorithm     : GePol (No added spheres)
                        Default sphere list used, NSphG=   71.
                        Lebedev-Laikov grids with approx.  5.0 points / Ang**2.
                        Smoothing algorithm: York/Karplus (Gamma=1.0000).
                        Polarization charges: spherical gaussians, with
                                              point-specific exponents (IZeta= 3).
                        Self-potential: point-specific (ISelfS= 7).
                        Self-field    : sphere-specific E.n sum rule (ISelfD= 2).
 1st derivatives      : Analytical E(r).r(x)/FMM algorithm (CHGder, D1EAlg=3).
                        Cavity 1st derivative terms included.
 2nd derivatives      : Analytical E(r).r(xy)/FMM algorithm (CHGder, D2EAlg=3).
                        Cavity 2nd derivative terms included.
 Solvent              : DiChloroEthane, Eps=  10.125000 Eps(inf)=   2.087447
 ------------------------------------------------------------------------------
 GePol: Number of generator spheres                  =      71
 GePol: Total number of spheres                      =      71
 GePol: Number of exposed spheres                    =      70 ( 98.59%)
 GePol: Number of points                             =    4826
 GePol: Average weight of points                     =       0.13
 GePol: Minimum weight of points                     =   0.63D-10
 GePol: Maximum weight of points                     =    0.21501
 GePol: Number of points with low weight             =     275
 GePol: Fraction of low-weight points (<1% of avg)   =       5.70%
 GePol: Cavity surface area                          =    624.270 Ang**2
 GePol: Cavity volume                                =    757.721 Ang**3
 ------------------------------------------------------------------------------
 Atomic radii for non-electrostatic terms: SMD-CDS.
 ------------------------------------------------------------------------------
 PCM non-electrostatic energy =         0.0057950395 Hartrees.
 Nuclear repulsion after PCM non-electrostatic terms =    10701.7764249746 Hartrees.
 Leave Link  301 at Sun Feb  9 14:28:21 2025, MaxMem= 82678120448 cpu:               4.3 elap:               0.3
 (Enter /sysapps/ubuntu-applications/gaussian-new/avx/g16/l302.exe)
 NPDir=0 NMtPBC=     1 NCelOv=     1 NCel=       1 NClECP=     1 NCelD=      1
         NCelK=      1 NCelE2=     1 NClLst=     1 CellRange=     0.0.
 One-electron integrals computed using PRISM.
 One-electron integral symmetry used in STVInt
 NBasis=   875 RedAO= T EigKep=  2.16D-04  NBF=   875
 NBsUse=   875 1.00D-06 EigRej= -1.00D+00 NBFU=   875
 Precomputing XC quadrature grid using
 IXCGrd= 4 IRadAn=           5 IRanWt=          -1 IRanGd=           0 AccXCQ= 0.00D+00.
 Generated NRdTot=       0 NPtTot=           0 NUsed=           0 NTot=          32
 NSgBfM=   885   883   884   885   885 MxSgAt=    71 MxSgA2=    71.
 Leave Link  302 at Sun Feb  9 14:28:29 2025, MaxMem= 82678120448 cpu:             188.9 elap:               8.4
 (Enter /sysapps/ubuntu-applications/gaussian-new/avx/g16/l303.exe)
 DipDrv:  MaxL=1.
 Leave Link  303 at Sun Feb  9 14:28:29 2025, MaxMem= 82678120448 cpu:               9.4 elap:               0.5
 (Enter /sysapps/ubuntu-applications/gaussian-new/avx/g16/l401.exe)
 ExpMin= 3.01D-02 ExpMax= 1.92D+05 ExpMxC= 1.85D+03 IAcc=3 IRadAn=         5 AccDes= 0.00D+00
 Harris functional with IExCor= 1009 and IRadAn=       5 diagonalized for initial guess.
 HarFok:  IExCor= 1009 AccDes= 0.00D+00 IRadAn=         5 IDoV= 1 UseB2=F ITyADJ=14
 ICtDFT=  3500011 ScaDFX=  1.000000  1.000000  1.000000  1.000000
 FoFCou: FMM=F IPFlag=           0 FMFlag=      100000 FMFlg1=        2001
         NFxFlg=           0 DoJE=T BraDBF=F KetDBF=T FulRan=T
         wScrn=  0.000000 ICntrl=       500 IOpCl=  0 I1Cent=   200000004 NGrid=           0
         NMat0=    1 NMatS0=      1 NMatT0=    0 NMatD0=    1 NMtDS0=    0 NMtDT0=    0
 Petite list used in FoFCou.
 Harris En= -4932.08109868441    
 JPrj=0 DoOrth=F DoCkMO=F.
 Leave Link  401 at Sun Feb  9 14:28:38 2025, MaxMem= 82678120448 cpu:             205.3 elap:               8.7
 (Enter /sysapps/ubuntu-applications/gaussian-new/avx/g16/l502.exe)
 Integral symmetry usage will be decided dynamically.
 Closed shell SCF:
 Using DIIS extrapolation, IDIIS=  1040.
 NGot= 82678120448 LenX= 82676343229 LenY= 82675469939
 Requested convergence on RMS density matrix=1.00D-08 within 500 cycles.
 Requested convergence on MAX density matrix=1.00D-06.
 Requested convergence on             energy=1.00D-06.
 No special actions if energy rises.
 Fock matrices will be formed incrementally for  20 cycles.

 Cycle   1  Pass 1  IDiag  1:
 FoFJK:  IHMeth= 1 ICntrl=       0 DoSepK=F KAlg= 0 I1Cent=           0 FoldK=F
 IRaf= 820000000 NMat=       1 IRICut=       1 DoRegI=T DoRafI=F ISym2E= 0 IDoP0=0 IntGTp=1.
 FoFCou: FMM=T IPFlag=           0 FMFlag=      100000 FMFlg1=        2001
         NFxFlg=           0 DoJE=F BraDBF=F KetDBF=F FulRan=T
         wScrn=  0.000000 ICntrl=         0 IOpCl=  0 I1Cent=           0 NGrid=           0
         NMat0=    1 NMatS0=      1 NMatT0=    0 NMatD0=    1 NMtDS0=    0 NMtDT0=    0
 Symmetry not used in FoFCou.
 FMM levels:  10  Number of levels for PrismC:   9
 Inv3:  Mode=1 IEnd=    69870828.
 Iteration    1 A*A^-1 deviation from unit magnitude is 7.11D-15 for   4802.
 Iteration    1 A*A^-1 deviation from orthogonality  is 4.02D-15 for   4814   3899.
 Iteration    1 A^-1*A deviation from unit magnitude is 7.33D-15 for   4802.
 Iteration    1 A^-1*A deviation from orthogonality  is 2.79D-15 for   3339   2896.
 E= -4930.47521154655    
 DIIS: error= 2.56D-02 at cycle   1 NSaved=   1.
 NSaved= 1 IEnMin= 1 EnMin= -4930.47521154655     IErMin= 1 ErrMin= 2.56D-02
 ErrMax= 2.56D-02  0.00D+00 EMaxC= 1.00D-01 BMatC= 1.93D+00 BMatP= 1.93D+00
 IDIUse=3 WtCom= 7.44D-01 WtEn= 2.56D-01
 Coeff-Com:  0.100D+01
 Coeff-En:   0.100D+01
 Coeff:      0.100D+01
 Gap=     0.290 Goal=   None    Shift=    0.000
 GapD=    0.290 DampG=1.000 DampE=0.250 DampFc=0.2500 IDamp=-1.
 Damping current iteration by 2.50D-01
 RMSDP=3.68D-03 MaxDP=5.13D-01              OVMax= 2.33D-01

 Cycle   2  Pass 1  IDiag  1:
 RMSU=  9.20D-04    CP:  9.99D-01
 E= -4930.99238564256     Delta-E=       -0.517174096005 Rises=F Damp=T
 DIIS: error= 1.14D-02 at cycle   2 NSaved=   2.
 NSaved= 2 IEnMin= 2 EnMin= -4930.99238564256     IErMin= 2 ErrMin= 1.14D-02
 ErrMax= 1.14D-02  0.00D+00 EMaxC= 1.00D-01 BMatC= 3.42D-01 BMatP= 1.93D+00
 IDIUse=3 WtCom= 8.86D-01 WtEn= 1.14D-01
 Coeff-Com: -0.580D+00 0.158D+01
 Coeff-En:   0.000D+00 0.100D+01
 Coeff:     -0.514D+00 0.151D+01
 Gap=     0.265 Goal=   None    Shift=    0.000
 RMSDP=1.01D-03 MaxDP=1.60D-01 DE=-5.17D-01 OVMax= 1.79D-01

 Cycle   3  Pass 1  IDiag  1:
 RMSU=  8.16D-04    CP:  9.94D-01  1.65D+00
 E= -4931.89525026471     Delta-E=       -0.902864622156 Rises=F Damp=F
 DIIS: error= 6.78D-03 at cycle   3 NSaved=   3.
 NSaved= 3 IEnMin= 3 EnMin= -4931.89525026471     IErMin= 3 ErrMin= 6.78D-03
 ErrMax= 6.78D-03  0.00D+00 EMaxC= 1.00D-01 BMatC= 4.77D-02 BMatP= 3.42D-01
 IDIUse=3 WtCom= 9.32D-01 WtEn= 6.78D-02
 Coeff-Com: -0.277D+00 0.646D+00 0.631D+00
 Coeff-En:   0.000D+00 0.000D+00 0.100D+01
 Coeff:     -0.258D+00 0.602D+00 0.656D+00
 Gap=     0.231 Goal=   None    Shift=    0.000
 RMSDP=3.81D-04 MaxDP=3.61D-02 DE=-9.03D-01 OVMax= 4.29D-02

 Cycle   4  Pass 1  IDiag  1:
 RMSU=  3.14D-04    CP:  9.96D-01  1.71D+00  7.43D-01
 E= -4931.92290055462     Delta-E=       -0.027650289911 Rises=F Damp=F
 DIIS: error= 5.41D-03 at cycle   4 NSaved=   4.
 NSaved= 4 IEnMin= 4 EnMin= -4931.92290055462     IErMin= 4 ErrMin= 5.41D-03
 ErrMax= 5.41D-03  0.00D+00 EMaxC= 1.00D-01 BMatC= 2.00D-02 BMatP= 4.77D-02
 IDIUse=3 WtCom= 9.46D-01 WtEn= 5.41D-02
 Coeff-Com: -0.108D+00 0.210D+00 0.410D+00 0.488D+00
 Coeff-En:   0.000D+00 0.000D+00 0.269D+00 0.731D+00
 Coeff:     -0.103D+00 0.198D+00 0.403D+00 0.502D+00
 Gap=     0.222 Goal=   None    Shift=    0.000
 RMSDP=1.81D-04 MaxDP=1.90D-02 DE=-2.77D-02 OVMax= 2.41D-02

 Cycle   5  Pass 1  IDiag  1:
 RMSU=  1.20D-04    CP:  9.96D-01  1.69D+00  8.15D-01  6.14D-01
 E= -4931.93781839423     Delta-E=       -0.014917839610 Rises=F Damp=F
 DIIS: error= 1.82D-03 at cycle   5 NSaved=   5.
 NSaved= 5 IEnMin= 5 EnMin= -4931.93781839423     IErMin= 5 ErrMin= 1.82D-03
 ErrMax= 1.82D-03  0.00D+00 EMaxC= 1.00D-01 BMatC= 1.95D-03 BMatP= 2.00D-02
 IDIUse=3 WtCom= 9.82D-01 WtEn= 1.82D-02
 Coeff-Com: -0.298D-01 0.395D-01 0.137D+00 0.279D+00 0.575D+00
 Coeff-En:   0.000D+00 0.000D+00 0.000D+00 0.463D-01 0.954D+00
 Coeff:     -0.293D-01 0.388D-01 0.134D+00 0.275D+00 0.582D+00
 Gap=     0.223 Goal=   None    Shift=    0.000
 RMSDP=5.51D-05 MaxDP=5.78D-03 DE=-1.49D-02 OVMax= 9.19D-03

 Cycle   6  Pass 1  IDiag  1:
 RMSU=  3.90D-05    CP:  9.96D-01  1.70D+00  8.22D-01  6.55D-01  7.20D-01
 E= -4931.93946485253     Delta-E=       -0.001646458302 Rises=F Damp=F
 DIIS: error= 4.38D-04 at cycle   6 NSaved=   6.
 NSaved= 6 IEnMin= 6 EnMin= -4931.93946485253     IErMin= 6 ErrMin= 4.38D-04
 ErrMax= 4.38D-04  0.00D+00 EMaxC= 1.00D-01 BMatC= 1.64D-04 BMatP= 1.95D-03
 IDIUse=3 WtCom= 9.96D-01 WtEn= 4.38D-03
 Coeff-Com: -0.590D-02 0.152D-02 0.292D-01 0.837D-01 0.293D+00 0.599D+00
 Coeff-En:   0.000D+00 0.000D+00 0.000D+00 0.000D+00 0.000D+00 0.100D+01
 Coeff:     -0.588D-02 0.151D-02 0.291D-01 0.833D-01 0.291D+00 0.600D+00
 Gap=     0.223 Goal=   None    Shift=    0.000
 RMSDP=1.82D-05 MaxDP=1.38D-03 DE=-1.65D-03 OVMax= 1.75D-03

 Cycle   7  Pass 1  IDiag  1:
 RMSU=  1.41D-05    CP:  9.96D-01  1.70D+00  8.27D-01  6.59D-01  7.83D-01
                    CP:  8.01D-01
 E= -4931.93958743617     Delta-E=       -0.000122583633 Rises=F Damp=F
 DIIS: error= 1.16D-04 at cycle   7 NSaved=   7.
 NSaved= 7 IEnMin= 7 EnMin= -4931.93958743617     IErMin= 7 ErrMin= 1.16D-04
 ErrMax= 1.16D-04  0.00D+00 EMaxC= 1.00D-01 BMatC= 2.83D-05 BMatP= 1.64D-04
 IDIUse=3 WtCom= 9.99D-01 WtEn= 1.16D-03
 Coeff-Com: -0.688D-04-0.349D-02-0.966D-04 0.119D-01 0.987D-01 0.351D+00
 Coeff-Com:  0.542D+00
 Coeff-En:   0.000D+00 0.000D+00 0.000D+00 0.000D+00 0.000D+00 0.371D-01
 Coeff-En:   0.963D+00
 Coeff:     -0.688D-04-0.349D-02-0.965D-04 0.119D-01 0.986D-01 0.351D+00
 Coeff:      0.542D+00
 Gap=     0.223 Goal=   None    Shift=    0.000
 RMSDP=7.08D-06 MaxDP=5.66D-04 DE=-1.23D-04 OVMax= 1.37D-03

 Cycle   8  Pass 1  IDiag  1:
 RMSU=  5.68D-06    CP:  9.96D-01  1.70D+00  8.28D-01  6.62D-01  7.98D-01
                    CP:  8.63D-01  8.11D-01
 E= -4931.93961039441     Delta-E=       -0.000022958240 Rises=F Damp=F
 DIIS: error= 2.68D-05 at cycle   8 NSaved=   8.
 NSaved= 8 IEnMin= 8 EnMin= -4931.93961039441     IErMin= 8 ErrMin= 2.68D-05
 ErrMax= 2.68D-05  0.00D+00 EMaxC= 1.00D-01 BMatC= 1.91D-06 BMatP= 2.83D-05
 IDIUse=1 WtCom= 1.00D+00 WtEn= 0.00D+00
 Coeff-Com:  0.849D-03-0.137D-02-0.458D-02-0.968D-02-0.768D-02 0.377D-01
 Coeff-Com:  0.221D+00 0.764D+00
 Coeff:      0.849D-03-0.137D-02-0.458D-02-0.968D-02-0.768D-02 0.377D-01
 Coeff:      0.221D+00 0.764D+00
 Gap=     0.223 Goal=   None    Shift=    0.000
 RMSDP=3.10D-06 MaxDP=1.78D-04 DE=-2.30D-05 OVMax= 1.02D-03

 Cycle   9  Pass 1  IDiag  1:
 RMSU=  2.20D-06    CP:  9.96D-01  1.70D+00  8.28D-01  6.62D-01  8.06D-01
                    CP:  8.99D-01  9.06D-01  1.00D+00
 E= -4931.93961274801     Delta-E=       -0.000002353607 Rises=F Damp=F
 DIIS: error= 9.98D-06 at cycle   9 NSaved=   9.
 NSaved= 9 IEnMin= 9 EnMin= -4931.93961274801     IErMin= 9 ErrMin= 9.98D-06
 ErrMax= 9.98D-06  0.00D+00 EMaxC= 1.00D-01 BMatC= 3.01D-07 BMatP= 1.91D-06
 IDIUse=1 WtCom= 1.00D+00 WtEn= 0.00D+00
 Coeff-Com:  0.489D-03-0.433D-03-0.201D-02-0.575D-02-0.130D-01-0.220D-01
 Coeff-Com:  0.436D-01 0.348D+00 0.651D+00
 Coeff:      0.489D-03-0.433D-03-0.201D-02-0.575D-02-0.130D-01-0.220D-01
 Coeff:      0.436D-01 0.348D+00 0.651D+00
 Gap=     0.223 Goal=   None    Shift=    0.000
 RMSDP=1.23D-06 MaxDP=1.34D-04 DE=-2.35D-06 OVMax= 3.12D-04

 Cycle  10  Pass 1  IDiag  1:
 RMSU=  7.47D-07    CP:  9.96D-01  1.70D+00  8.28D-01  6.62D-01  8.09D-01
                    CP:  9.11D-01  9.41D-01  1.10D+00  9.54D-01
 E= -4931.93961310820     Delta-E=       -0.000000360184 Rises=F Damp=F
 DIIS: error= 3.80D-06 at cycle  10 NSaved=  10.
 NSaved=10 IEnMin=10 EnMin= -4931.93961310820     IErMin=10 ErrMin= 3.80D-06
 ErrMax= 3.80D-06  0.00D+00 EMaxC= 1.00D-01 BMatC= 4.02D-08 BMatP= 3.01D-07
 IDIUse=1 WtCom= 1.00D+00 WtEn= 0.00D+00
 Coeff-Com:  0.119D-03-0.301D-04-0.669D-04-0.941D-03-0.406D-02-0.163D-01
 Coeff-Com: -0.137D-01 0.357D-01 0.265D+00 0.735D+00
 Coeff:      0.119D-03-0.301D-04-0.669D-04-0.941D-03-0.406D-02-0.163D-01
 Coeff:     -0.137D-01 0.357D-01 0.265D+00 0.735D+00
 Gap=     0.223 Goal=   None    Shift=    0.000
 RMSDP=5.58D-07 MaxDP=4.03D-05 DE=-3.60D-07 OVMax= 1.97D-04

 Cycle  11  Pass 1  IDiag  1:
 RMSU=  3.32D-07    CP:  9.96D-01  1.70D+00  8.28D-01  6.62D-01  8.10D-01
                    CP:  9.14D-01  9.58D-01  1.15D+00  1.05D+00  9.78D-01
 E= -4931.93961316280     Delta-E=       -0.000000054604 Rises=F Damp=F
 DIIS: error= 2.25D-06 at cycle  11 NSaved=  11.
 NSaved=11 IEnMin=11 EnMin= -4931.93961316280     IErMin=11 ErrMin= 2.25D-06
 ErrMax= 2.25D-06  0.00D+00 EMaxC= 1.00D-01 BMatC= 1.47D-08 BMatP= 4.02D-08
 IDIUse=1 WtCom= 1.00D+00 WtEn= 0.00D+00
 Coeff-Com: -0.607D-05 0.452D-04 0.354D-03 0.535D-03-0.494D-04-0.595D-02
 Coeff-Com: -0.165D-01-0.464D-01 0.180D-01 0.434D+00 0.616D+00
 Coeff:     -0.607D-05 0.452D-04 0.354D-03 0.535D-03-0.494D-04-0.595D-02
 Coeff:     -0.165D-01-0.464D-01 0.180D-01 0.434D+00 0.616D+00
 Gap=     0.223 Goal=   None    Shift=    0.000
 RMSDP=2.58D-07 MaxDP=1.26D-05 DE=-5.46D-08 OVMax= 7.65D-05

 Cycle  12  Pass 1  IDiag  1:
 RMSU=  1.27D-07    CP:  9.96D-01  1.70D+00  8.28D-01  6.62D-01  8.11D-01
                    CP:  9.16D-01  9.63D-01  1.16D+00  1.10D+00  1.11D+00
                    CP:  8.83D-01
 E= -4931.93961317799     Delta-E=       -0.000000015185 Rises=F Damp=F
 DIIS: error= 7.12D-07 at cycle  12 NSaved=  12.
 NSaved=12 IEnMin=12 EnMin= -4931.93961317799     IErMin=12 ErrMin= 7.12D-07
 ErrMax= 7.12D-07  0.00D+00 EMaxC= 1.00D-01 BMatC= 1.14D-09 BMatP= 1.47D-08
 IDIUse=1 WtCom= 1.00D+00 WtEn= 0.00D+00
 Coeff-Com: -0.122D-04 0.148D-04 0.172D-03 0.387D-03 0.543D-03-0.365D-03
 Coeff-Com: -0.545D-02-0.266D-01-0.312D-01 0.956D-01 0.274D+00 0.693D+00
 Coeff:     -0.122D-04 0.148D-04 0.172D-03 0.387D-03 0.543D-03-0.365D-03
 Coeff:     -0.545D-02-0.266D-01-0.312D-01 0.956D-01 0.274D+00 0.693D+00
 Gap=     0.223 Goal=   None    Shift=    0.000
 RMSDP=7.50D-08 MaxDP=4.15D-06 DE=-1.52D-08 OVMax= 2.59D-05

 Cycle  13  Pass 1  IDiag  1:
 RMSU=  4.33D-08    CP:  9.96D-01  1.70D+00  8.28D-01  6.62D-01  8.11D-01
                    CP:  9.16D-01  9.64D-01  1.17D+00  1.12D+00  1.15D+00
                    CP:  9.49D-01  9.37D-01
 E= -4931.93961317911     Delta-E=       -0.000000001122 Rises=F Damp=F
 DIIS: error= 2.14D-07 at cycle  13 NSaved=  13.
 NSaved=13 IEnMin=13 EnMin= -4931.93961317911     IErMin=13 ErrMin= 2.14D-07
 ErrMax= 2.14D-07  0.00D+00 EMaxC= 1.00D-01 BMatC= 1.56D-10 BMatP= 1.14D-09
 IDIUse=1 WtCom= 1.00D+00 WtEn= 0.00D+00
 Coeff-Com: -0.232D-05-0.199D-05 0.398D-04 0.118D-03 0.244D-03 0.473D-03
 Coeff-Com: -0.604D-03-0.687D-02-0.149D-01-0.168D-02 0.569D-01 0.326D+00
 Coeff-Com:  0.640D+00
 Coeff:     -0.232D-05-0.199D-05 0.398D-04 0.118D-03 0.244D-03 0.473D-03
 Coeff:     -0.604D-03-0.687D-02-0.149D-01-0.168D-02 0.569D-01 0.326D+00
 Coeff:      0.640D+00
 Gap=     0.223 Goal=   None    Shift=    0.000
 RMSDP=2.16D-08 MaxDP=1.55D-06 DE=-1.12D-09 OVMax= 5.55D-06

 Cycle  14  Pass 1  IDiag  1:
 RMSU=  1.52D-08    CP:  9.96D-01  1.70D+00  8.28D-01  6.62D-01  8.11D-01
                    CP:  9.16D-01  9.64D-01  1.17D+00  1.12D+00  1.16D+00
                    CP:  9.69D-01  9.86D-01  9.01D-01
 E= -4931.93961317933     Delta-E=       -0.000000000226 Rises=F Damp=F
 DIIS: error= 4.53D-08 at cycle  14 NSaved=  14.
 NSaved=14 IEnMin=14 EnMin= -4931.93961317933     IErMin=14 ErrMin= 4.53D-08
 ErrMax= 4.53D-08  0.00D+00 EMaxC= 1.00D-01 BMatC= 1.44D-11 BMatP= 1.56D-10
 IDIUse=1 WtCom= 1.00D+00 WtEn= 0.00D+00
 Coeff-Com:  0.693D-06-0.248D-05-0.702D-05-0.454D-05 0.255D-04 0.254D-03
 Coeff-Com:  0.516D-03 0.821D-03-0.154D-02-0.148D-01-0.177D-01 0.308D-01
 Coeff-Com:  0.250D+00 0.752D+00
 Coeff:      0.693D-06-0.248D-05-0.702D-05-0.454D-05 0.255D-04 0.254D-03
 Coeff:      0.516D-03 0.821D-03-0.154D-02-0.148D-01-0.177D-01 0.308D-01
 Coeff:      0.250D+00 0.752D+00
 Gap=     0.223 Goal=   None    Shift=    0.000
 RMSDP=9.57D-09 MaxDP=6.37D-07 DE=-2.26D-10 OVMax= 2.22D-06

 Error on total polarization charges =  0.03281
 SCF Done:  E(RMN15) =  -4931.93961318     A.U. after   14 cycles
            NFock= 14  Conv=0.96D-08     -V/T= 2.0065
 KE= 4.900228252439D+03 PE=-3.302741835782D+04 EE= 1.249347406722D+04
 SMD-CDS (non-electrostatic) energy       (kcal/mol) =       3.64
 (included in total energy above)
 Leave Link  502 at Sun Feb  9 14:38:53 2025, MaxMem= 82678120448 cpu:           13885.8 elap:             614.6
 (Enter /sysapps/ubuntu-applications/gaussian-new/avx/g16/l801.exe)
 DoSCS=F DFT=T ScalE2(SS,OS)=  1.000000  1.000000
 Range of M.O.s used for correlation:     1   875
 NBasis=   875 NAE=   219 NBE=   219 NFC=     0 NFV=     0
 NROrb=    875 NOA=   219 NOB=   219 NVA=   656 NVB=   656

 **** Warning!!: The largest alpha MO coefficient is  0.12548940D+02

 Leave Link  801 at Sun Feb  9 14:38:53 2025, MaxMem= 82678120448 cpu:               3.5 elap:               0.2
 (Enter /sysapps/ubuntu-applications/gaussian-new/avx/g16/l1101.exe)
 Using compressed storage, NAtomX=    71.
 Will process     72 centers per pass.
 Leave Link 1101 at Sun Feb  9 14:39:09 2025, MaxMem= 82678120448 cpu:             329.5 elap:              15.3
 (Enter /sysapps/ubuntu-applications/gaussian-new/avx/g16/l1102.exe)
 Symmetrizing basis deriv contribution to polar:
 IMax=3 JMax=2 DiffMx= 0.00D+00
 Leave Link 1102 at Sun Feb  9 14:39:10 2025, MaxMem= 82678120448 cpu:               9.8 elap:               0.7
 (Enter /sysapps/ubuntu-applications/gaussian-new/avx/g16/l1110.exe)
 Forming Gx(P) for the SCF density, NAtomX=    71.
 Integral derivatives from FoFJK, PRISM(SPDF).
 Do as many integral derivatives as possible in FoFJK.
 G2DrvN: MDV=   82678114348.
 G2DrvN: will do    72 centers at a time, making    1 passes.
 Calling FoFCou, ICntrl=  3107 FMM=T I1Cent=   0 AccDes= 0.00D+00.
 FoFJK:  IHMeth= 1 ICntrl=    3107 DoSepK=F KAlg= 0 I1Cent=           0 FoldK=F
 IRaf=         0 NMat=       1 IRICut=       1 DoRegI=T DoRafI=F ISym2E= 0 IDoP0=0 IntGTp=1.
 FoFCou: FMM=T IPFlag=           0 FMFlag=      100000 FMFlg1=        2001
         NFxFlg=           0 DoJE=F BraDBF=F KetDBF=F FulRan=T
         wScrn=  0.000000 ICntrl=      3107 IOpCl=  0 I1Cent=           0 NGrid=           0
         NMat0=    1 NMatS0=      1 NMatT0=    0 NMatD0=    1 NMtDS0=    0 NMtDT0=    0
 Symmetry not used in FoFCou.
 FMM levels:  10  Number of levels for PrismC:   9
 NEqPCM:  Using equilibrium solvation (IEInf=0, Eps=  10.1250, EpsInf=   2.0874)
 G2PCM: DoFxE=T DoFxN=T DoGrad=T DoDP/DQ/DG/TGxP=FFFF NFrqRd=   0 IEInf=0 SqF1=F DoCFld=F IF1Alg=4.
 GePol: Maximum number of non-zero 1st derivatives   =     268
 End of G2Drv F.D. properties file   721 does not exist.
 End of G2Drv F.D. properties file   722 does not exist.
 End of G2Drv F.D. properties file   788 does not exist.
 Leave Link 1110 at Sun Feb  9 15:15:19 2025, MaxMem= 82678120448 cpu:           50416.5 elap:            2168.7
 (Enter /sysapps/ubuntu-applications/gaussian-new/avx/g16/l1002.exe)
 Minotr:  Closed shell wavefunction.
          IDoAtm=11111111111111111111111111111111111111111111111111
          IDoAtm=111111111111111111111
 NEqPCM:  Using equilibrium solvation (IEInf=0, Eps=  10.1250, EpsInf=   2.0874)
          Direct CPHF calculation.
          Differentiating once with respect to electric field.
                with respect to dipole field.
          Differentiating once with respect to nuclear coordinates.
          Requested convergence is 1.0D-08 RMS, and 1.0D-07 maximum.
          Secondary convergence is 1.0D-12 RMS, and 1.0D-12 maximum.
          NewPWx=T KeepS1=F KeepF1=F KeepIn=T MapXYZ=F SortEE=F KeepMc=T.
        21971 words used for storage of precomputed grid.
 Two-electron integrals replicated using symmetry.
          MDV=   82678120448 using IRadAn=       1.
          Solving linear equations simultaneously, MaxMat=      72.
 FoF2E skips out because all densities are zero.
 CalDSu exits because no D1Ps are significant.
 FoFJK:  IHMeth= 1 ICntrl=       0 DoSepK=F KAlg= 0 I1Cent=           0 FoldK=F
 IRaf= 770000000 NMat=      72 IRICut=       1 DoRegI=T DoRafI=F ISym2E= 2 IDoP0=3 IntGTp=3.
          There are   216 degrees of freedom in the 1st order CPHF.  IDoFFX=6 NUNeed=     3.
    216 vectors produced by pass  0 Test12= 1.44D-13 1.00D-09 XBig12= 2.36D+02 3.67D+00.
 AX will form    72 AO Fock derivatives at one time.
    213 vectors produced by pass  1 Test12= 1.44D-13 1.00D-09 XBig12= 4.40D+01 5.23D-01.
    213 vectors produced by pass  2 Test12= 1.44D-13 1.00D-09 XBig12= 1.66D+00 1.14D-01.
    213 vectors produced by pass  3 Test12= 1.44D-13 1.00D-09 XBig12= 2.49D-02 1.04D-02.
    213 vectors produced by pass  4 Test12= 1.44D-13 1.00D-09 XBig12= 2.01D-04 1.06D-03.
    213 vectors produced by pass  5 Test12= 1.44D-13 1.00D-09 XBig12= 9.38D-07 5.45D-05.
    176 vectors produced by pass  6 Test12= 1.44D-13 1.00D-09 XBig12= 3.44D-09 3.14D-06.
     44 vectors produced by pass  7 Test12= 1.44D-13 1.00D-09 XBig12= 1.09D-11 1.83D-07.
      3 vectors produced by pass  8 Test12= 1.44D-13 1.00D-09 XBig12= 3.47D-14 1.22D-08.
      1 vectors produced by pass  9 Test12= 1.44D-13 1.00D-09 XBig12= 6.00D-16 1.26D-09.
 InvSVY:  IOpt=1 It=  1 EMax= 8.88D-15
 Solved reduced A of dimension  1505 with   216 vectors.
 FullF1:  Do perturbations      1 to       3.
 Isotropic polarizability for W=    0.000000      462.43 Bohr**3.
 End of Minotr F.D. properties file   721 does not exist.
 End of Minotr F.D. properties file   722 does not exist.
 End of Minotr F.D. properties file   788 does not exist.
 Leave Link 1002 at Sun Feb  9 16:51:43 2025, MaxMem= 82678120448 cpu:          134790.2 elap:            5782.4
 (Enter /sysapps/ubuntu-applications/gaussian-new/avx/g16/l601.exe)
 Copying SCF densities to generalized density rwf, IOpCl= 0 IROHF=0.

 **********************************************************************

            Population analysis using the SCF density.

 **********************************************************************

 Orbital symmetries:
       Occupied  (A) (A) (A) (A) (A) (A) (A) (A) (A) (A) (A) (A)
                 (A) (A) (A) (A) (A) (A) (A) (A) (A) (A) (A) (A)
                 (A) (A) (A) (A) (A) (A) (A) (A) (A) (A) (A) (A)
                 (A) (A) (A) (A) (A) (A) (A) (A) (A) (A) (A) (A)
                 (A) (A) (A) (A) (A) (A) (A) (A) (A) (A) (A) (A)
                 (A) (A) (A) (A) (A) (A) (A) (A) (A) (A) (A) (A)
                 (A) (A) (A) (A) (A) (A) (A) (A) (A) (A) (A) (A)
                 (A) (A) (A) (A) (A) (A) (A) (A) (A) (A) (A) (A)
                 (A) (A) (A) (A) (A) (A) (A) (A) (A) (A) (A) (A)
                 (A) (A) (A) (A) (A) (A) (A) (A) (A) (A) (A) (A)
                 (A) (A) (A) (A) (A) (A) (A) (A) (A) (A) (A) (A)
                 (A) (A) (A) (A) (A) (A) (A) (A) (A) (A) (A) (A)
                 (A) (A) (A) (A) (A) (A) (A) (A) (A) (A) (A) (A)
                 (A) (A) (A) (A) (A) (A) (A) (A) (A) (A) (A) (A)
                 (A) (A) (A) (A) (A) (A) (A) (A) (A) (A) (A) (A)
                 (A) (A) (A) (A) (A) (A) (A) (A) (A) (A) (A) (A)
                 (A) (A) (A) (A) (A) (A) (A) (A) (A) (A) (A) (A)
                 (A) (A) (A) (A) (A) (A) (A) (A) (A) (A) (A) (A)
                 (A) (A) (A)
       Virtual   (A) (A) (A) (A) (A) (A) (A) (A) (A) (A) (A) (A)
                 (A) (A) (A) (A) (A) (A) (A) (A) (A) (A) (A) (A)
                 (A) (A) (A) (A) (A) (A) (A) (A) (A) (A) (A) (A)
                 (A) (A) (A) (A) (A) (A) (A) (A) (A) (A) (A) (A)
                 (A) (A) (A) (A) (A) (A) (A) (A) (A) (A) (A) (A)
                 (A) (A) (A) (A) (A) (A) (A) (A) (A) (A) (A) (A)
                 (A) (A) (A) (A) (A) (A) (A) (A) (A) (A) (A) (A)
                 (A) (A) (A) (A) (A) (A) (A) (A) (A) (A) (A) (A)
                 (A) (A) (A) (A) (A) (A) (A) (A) (A) (A) (A) (A)
                 (A) (A) (A) (A) (A) (A) (A) (A) (A) (A) (A) (A)
                 (A) (A) (A) (A) (A) (A) (A) (A) (A) (A) (A) (A)
                 (A) (A) (A) (A) (A) (A) (A) (A) (A) (A) (A) (A)
                 (A) (A) (A) (A) (A) (A) (A) (A) (A) (A) (A) (A)
                 (A) (A) (A) (A) (A) (A) (A) (A) (A) (A) (A) (A)
                 (A) (A) (A) (A) (A) (A) (A) (A) (A) (A) (A) (A)
                 (A) (A) (A) (A) (A) (A) (A) (A) (A) (A) (A) (A)
                 (A) (A) (A) (A) (A) (A) (A) (A) (A) (A) (A) (A)
                 (A) (A) (A) (A) (A) (A) (A) (A) (A) (A) (A) (A)
                 (A) (A) (A) (A) (A) (A) (A) (A) (A) (A) (A) (A)
                 (A) (A) (A) (A) (A) (A) (A) (A) (A) (A) (A) (A)
                 (A) (A) (A) (A) (A) (A) (A) (A) (A) (A) (A) (A)
                 (A) (A) (A) (A) (A) (A) (A) (A) (A) (A) (A) (A)
                 (A) (A) (A) (A) (A) (A) (A) (A) (A) (A) (A) (A)
                 (A) (A) (A) (A) (A) (A) (A) (A) (A) (A) (A) (A)
                 (A) (A) (A) (A) (A) (A) (A) (A) (A) (A) (A) (A)
                 (A) (A) (A) (A) (A) (A) (A) (A) (A) (A) (A) (A)
                 (A) (A) (A) (A) (A) (A) (A) (A) (A) (A) (A) (A)
                 (A) (A) (A) (A) (A) (A) (A) (A) (A) (A) (A) (A)
                 (A) (A) (A) (A) (A) (A) (A) (A) (A) (A) (A) (A)
                 (A) (A) (A) (A) (A) (A) (A) (A) (A) (A) (A) (A)
                 (A) (A) (A) (A) (A) (A) (A) (A) (A) (A) (A) (A)
                 (A) (A) (A) (A) (A) (A) (A) (A) (A) (A) (A) (A)
                 (A) (A) (A) (A) (A) (A) (A) (A) (A) (A) (A) (A)
                 (A) (A) (A) (A) (A) (A) (A) (A) (A) (A) (A) (A)
                 (A) (A) (A) (A) (A) (A) (A) (A) (A) (A) (A) (A)
                 (A) (A) (A) (A) (A) (A) (A) (A) (A) (A) (A) (A)
                 (A) (A) (A) (A) (A) (A) (A) (A) (A) (A) (A) (A)
                 (A) (A) (A) (A) (A) (A) (A) (A) (A) (A) (A) (A)
                 (A) (A) (A) (A) (A) (A) (A) (A) (A) (A) (A) (A)
                 (A) (A) (A) (A) (A) (A) (A) (A) (A) (A) (A) (A)
                 (A) (A) (A) (A) (A) (A) (A) (A) (A) (A) (A) (A)
                 (A) (A) (A) (A) (A) (A) (A) (A) (A) (A) (A) (A)
                 (A) (A) (A) (A) (A) (A) (A) (A) (A) (A) (A) (A)
                 (A) (A) (A) (A) (A) (A) (A) (A) (A) (A) (A) (A)
                 (A) (A) (A) (A) (A) (A) (A) (A) (A) (A) (A) (A)
                 (A) (A) (A) (A) (A) (A) (A) (A) (A) (A) (A) (A)
                 (A) (A) (A) (A) (A) (A) (A) (A) (A) (A) (A) (A)
                 (A) (A) (A) (A) (A) (A) (A) (A) (A) (A) (A) (A)
                 (A) (A) (A) (A) (A) (A) (A) (A) (A) (A) (A) (A)
                 (A) (A) (A) (A) (A) (A) (A) (A) (A) (A) (A) (A)
                 (A) (A) (A) (A) (A) (A) (A) (A) (A) (A) (A) (A)
                 (A) (A) (A) (A) (A) (A) (A) (A) (A) (A) (A) (A)
                 (A) (A) (A) (A) (A) (A) (A) (A) (A) (A) (A) (A)
                 (A) (A) (A) (A) (A) (A) (A) (A) (A) (A) (A) (A)
                 (A) (A) (A) (A) (A) (A) (A) (A)
 The electronic state is 1-A.
 Alpha  occ. eigenvalues -- -160.22292 -88.07124 -88.06586 -88.06254 -24.34980
 Alpha  occ. eigenvalues --  -24.34835 -24.34642 -24.34633 -24.34621 -24.34457
 Alpha  occ. eigenvalues --  -24.34019 -24.33965 -24.33936 -18.91687 -18.91468
 Alpha  occ. eigenvalues --  -18.87832 -18.87180 -18.85793 -18.85748 -18.85085
 Alpha  occ. eigenvalues --  -18.85062 -18.84791 -18.84787 -18.84485 -18.83907
 Alpha  occ. eigenvalues --  -18.83841 -17.20847 -14.50990 -14.50956 -14.50927
 Alpha  occ. eigenvalues --  -14.19018 -14.15817 -14.13781 -14.13011 -10.34316
 Alpha  occ. eigenvalues --  -10.34118 -10.33777 -10.25486 -10.25484 -10.19681
 Alpha  occ. eigenvalues --  -10.15038 -10.13578 -10.12863 -10.12525 -10.12417
 Alpha  occ. eigenvalues --  -10.12211 -10.10195 -10.09902 -10.09222 -10.08512
 Alpha  occ. eigenvalues --  -10.07737 -10.07473 -10.06301 -10.06174 -10.05919
 Alpha  occ. eigenvalues --  -10.05888 -10.05861  -7.96964  -7.96340  -7.96092
 Alpha  occ. eigenvalues --   -6.16484  -6.16438  -6.16293  -6.15866  -6.15808
 Alpha  occ. eigenvalues --   -6.15702  -6.15617  -6.15559  -6.15430  -2.17101
 Alpha  occ. eigenvalues --   -1.41752  -1.41601  -1.41394  -1.38521  -1.38477
 Alpha  occ. eigenvalues --   -1.37872  -1.28519  -1.28503  -1.28431  -1.28379
 Alpha  occ. eigenvalues --   -1.27818  -1.27752  -1.21561  -1.21004  -1.20530
 Alpha  occ. eigenvalues --   -1.20374  -1.20291  -1.11062  -1.10033  -1.09617
 Alpha  occ. eigenvalues --   -1.08694  -1.07605  -1.07437  -1.06336  -1.05693
 Alpha  occ. eigenvalues --   -1.05446  -0.98273  -0.96074  -0.94572  -0.91421
 Alpha  occ. eigenvalues --   -0.90517  -0.86828  -0.84737  -0.81793  -0.80985
 Alpha  occ. eigenvalues --   -0.80717  -0.80236  -0.79863  -0.78594  -0.78257
 Alpha  occ. eigenvalues --   -0.75880  -0.73405  -0.72883  -0.72609  -0.72105
 Alpha  occ. eigenvalues --   -0.71295  -0.68712  -0.68494  -0.68417  -0.68378
 Alpha  occ. eigenvalues --   -0.68286  -0.67769  -0.67745  -0.65885  -0.65161
 Alpha  occ. eigenvalues --   -0.64644  -0.64215  -0.63862  -0.63554  -0.63164
 Alpha  occ. eigenvalues --   -0.62656  -0.61962  -0.61348  -0.60891  -0.60005
 Alpha  occ. eigenvalues --   -0.59612  -0.58808  -0.58496  -0.57859  -0.57340
 Alpha  occ. eigenvalues --   -0.56833  -0.56643  -0.56032  -0.55900  -0.55700
 Alpha  occ. eigenvalues --   -0.55488  -0.55379  -0.55338  -0.55241  -0.55071
 Alpha  occ. eigenvalues --   -0.54555  -0.54509  -0.54330  -0.53778  -0.53707
 Alpha  occ. eigenvalues --   -0.53497  -0.53006  -0.52532  -0.52459  -0.52277
 Alpha  occ. eigenvalues --   -0.52202  -0.51792  -0.51646  -0.51440  -0.51339
 Alpha  occ. eigenvalues --   -0.51022  -0.49824  -0.49700  -0.49068  -0.49029
 Alpha  occ. eigenvalues --   -0.48798  -0.48527  -0.48491  -0.47740  -0.47563
 Alpha  occ. eigenvalues --   -0.47315  -0.46521  -0.46028  -0.45914  -0.45402
 Alpha  occ. eigenvalues --   -0.45136  -0.44834  -0.44259  -0.44108  -0.43913
 Alpha  occ. eigenvalues --   -0.43552  -0.43137  -0.42832  -0.42554  -0.42511
 Alpha  occ. eigenvalues --   -0.41791  -0.41744  -0.41692  -0.41498  -0.41195
 Alpha  occ. eigenvalues --   -0.41007  -0.40819  -0.40523  -0.40172  -0.40041
 Alpha  occ. eigenvalues --   -0.39958  -0.39641  -0.39372  -0.39259  -0.39034
 Alpha  occ. eigenvalues --   -0.38806  -0.38378  -0.38222  -0.38083  -0.37605
 Alpha  occ. eigenvalues --   -0.37478  -0.37302  -0.36793  -0.36584  -0.35445
 Alpha  occ. eigenvalues --   -0.33811  -0.29545  -0.29478  -0.26486
 Alpha virt. eigenvalues --   -0.04141  -0.04047  -0.03438  -0.02486  -0.00832
 Alpha virt. eigenvalues --   -0.00729   0.00651   0.00720   0.00985   0.01433
 Alpha virt. eigenvalues --    0.01898   0.03650   0.05485   0.06872   0.07049
 Alpha virt. eigenvalues --    0.07335   0.08165   0.08307   0.08465   0.08626
 Alpha virt. eigenvalues --    0.08850   0.09106   0.09449   0.09681   0.09988
 Alpha virt. eigenvalues --    0.10292   0.10771   0.11172   0.11741   0.12092
 Alpha virt. eigenvalues --    0.12382   0.13019   0.13232   0.13591   0.14415
 Alpha virt. eigenvalues --    0.14584   0.14846   0.15337   0.15727   0.16556
 Alpha virt. eigenvalues --    0.16769   0.16846   0.17065   0.17324   0.17536
 Alpha virt. eigenvalues --    0.17968   0.18409   0.18996   0.19101   0.19597
 Alpha virt. eigenvalues --    0.19891   0.20019   0.20226   0.21074   0.21512
 Alpha virt. eigenvalues --    0.21984   0.22484   0.22748   0.23266   0.23734
 Alpha virt. eigenvalues --    0.23933   0.24422   0.24875   0.24989   0.25191
 Alpha virt. eigenvalues --    0.25796   0.25944   0.26354   0.26416   0.26988
 Alpha virt. eigenvalues --    0.27372   0.27448   0.28152   0.28391   0.28714
 Alpha virt. eigenvalues --    0.28997   0.29642   0.29842   0.30457   0.31167
 Alpha virt. eigenvalues --    0.31946   0.32472   0.32916   0.33568   0.34654
 Alpha virt. eigenvalues --    0.35397   0.36141   0.36744   0.37370   0.38606
 Alpha virt. eigenvalues --    0.39229   0.39809   0.39938   0.40686   0.41441
 Alpha virt. eigenvalues --    0.41860   0.42257   0.42705   0.43431   0.43802
 Alpha virt. eigenvalues --    0.44096   0.44364   0.44617   0.45023   0.45620
 Alpha virt. eigenvalues --    0.46075   0.46312   0.46777   0.46958   0.47604
 Alpha virt. eigenvalues --    0.47828   0.48054   0.48337   0.48661   0.48708
 Alpha virt. eigenvalues --    0.49217   0.49891   0.50130   0.50408   0.50893
 Alpha virt. eigenvalues --    0.51091   0.51357   0.51684   0.52284   0.52500
 Alpha virt. eigenvalues --    0.52929   0.53263   0.53801   0.54184   0.55132
 Alpha virt. eigenvalues --    0.55314   0.55459   0.56358   0.56533   0.56957
 Alpha virt. eigenvalues --    0.57430   0.57910   0.58632   0.58844   0.59150
 Alpha virt. eigenvalues --    0.59407   0.59825   0.60926   0.61079   0.61377
 Alpha virt. eigenvalues --    0.62242   0.62748   0.62989   0.63492   0.63990
 Alpha virt. eigenvalues --    0.64072   0.64352   0.64595   0.65414   0.66036
 Alpha virt. eigenvalues --    0.66270   0.66636   0.66955   0.67223   0.67284
 Alpha virt. eigenvalues --    0.67449   0.67863   0.68060   0.68522   0.68695
 Alpha virt. eigenvalues --    0.69181   0.69393   0.69539   0.69791   0.70126
 Alpha virt. eigenvalues --    0.70417   0.70560   0.70792   0.71103   0.71198
 Alpha virt. eigenvalues --    0.71445   0.72374   0.72432   0.72511   0.72919
 Alpha virt. eigenvalues --    0.73167   0.73508   0.74018   0.74236   0.74526
 Alpha virt. eigenvalues --    0.74909   0.75870   0.75937   0.76310   0.76632
 Alpha virt. eigenvalues --    0.76941   0.77383   0.77567   0.78554   0.78730
 Alpha virt. eigenvalues --    0.79235   0.79509   0.80459   0.81090   0.81802
 Alpha virt. eigenvalues --    0.82695   0.83216   0.84306   0.85016   0.85782
 Alpha virt. eigenvalues --    0.86391   0.86718   0.86875   0.87647   0.88158
 Alpha virt. eigenvalues --    0.88347   0.88895   0.89137   0.89873   0.90359
 Alpha virt. eigenvalues --    0.91060   0.91357   0.91972   0.92605   0.93338
 Alpha virt. eigenvalues --    0.93743   0.93998   0.94216   0.95102   0.95797
 Alpha virt. eigenvalues --    0.96133   0.96939   0.97071   0.97400   0.97703
 Alpha virt. eigenvalues --    0.98997   0.99235   0.99718   1.00284   1.01484
 Alpha virt. eigenvalues --    1.01661   1.02152   1.02965   1.03232   1.03884
 Alpha virt. eigenvalues --    1.03929   1.04282   1.05539   1.06377   1.07206
 Alpha virt. eigenvalues --    1.07274   1.07701   1.08122   1.08234   1.08706
 Alpha virt. eigenvalues --    1.09397   1.09777   1.10416   1.10799   1.11433
 Alpha virt. eigenvalues --    1.11766   1.12109   1.12457   1.13259   1.13706
 Alpha virt. eigenvalues --    1.13892   1.14444   1.14959   1.15642   1.15782
 Alpha virt. eigenvalues --    1.16172   1.17204   1.17685   1.17977   1.18745
 Alpha virt. eigenvalues --    1.18923   1.19081   1.19255   1.19550   1.20716
 Alpha virt. eigenvalues --    1.20985   1.21262   1.21759   1.22342   1.22531
 Alpha virt. eigenvalues --    1.22958   1.23619   1.24013   1.24080   1.24643
 Alpha virt. eigenvalues --    1.25179   1.25464   1.26066   1.26380   1.26899
 Alpha virt. eigenvalues --    1.27273   1.27895   1.28448   1.28761   1.29150
 Alpha virt. eigenvalues --    1.29764   1.29903   1.30325   1.31390   1.31968
 Alpha virt. eigenvalues --    1.32221   1.32432   1.32931   1.33203   1.33503
 Alpha virt. eigenvalues --    1.33846   1.34427   1.35048   1.35252   1.35954
 Alpha virt. eigenvalues --    1.36319   1.36456   1.37220   1.37864   1.38569
 Alpha virt. eigenvalues --    1.38770   1.39450   1.40176   1.40429   1.40779
 Alpha virt. eigenvalues --    1.41110   1.41636   1.41985   1.42914   1.43366
 Alpha virt. eigenvalues --    1.43567   1.43960   1.44532   1.45876   1.45921
 Alpha virt. eigenvalues --    1.46462   1.46694   1.47845   1.48121   1.49203
 Alpha virt. eigenvalues --    1.49435   1.50065   1.50759   1.51595   1.52550
 Alpha virt. eigenvalues --    1.52713   1.53006   1.53698   1.53851   1.54176
 Alpha virt. eigenvalues --    1.55097   1.55328   1.55850   1.56168   1.57377
 Alpha virt. eigenvalues --    1.58231   1.58738   1.58869   1.60219   1.60548
 Alpha virt. eigenvalues --    1.60895   1.61735   1.61933   1.62198   1.62311
 Alpha virt. eigenvalues --    1.62867   1.63925   1.64718   1.65636   1.65952
 Alpha virt. eigenvalues --    1.66752   1.66997   1.67795   1.68465   1.68730
 Alpha virt. eigenvalues --    1.68892   1.69273   1.69835   1.71304   1.71349
 Alpha virt. eigenvalues --    1.71879   1.72357   1.72972   1.73334   1.73583
 Alpha virt. eigenvalues --    1.74141   1.74459   1.74690   1.74999   1.75469
 Alpha virt. eigenvalues --    1.75637   1.75966   1.76685   1.77057   1.77659
 Alpha virt. eigenvalues --    1.77969   1.78530   1.78995   1.79929   1.80132
 Alpha virt. eigenvalues --    1.81397   1.81666   1.82418   1.82999   1.83409
 Alpha virt. eigenvalues --    1.83684   1.84196   1.85048   1.85110   1.85876
 Alpha virt. eigenvalues --    1.86047   1.86281   1.86563   1.86730   1.87168
 Alpha virt. eigenvalues --    1.87884   1.88408   1.89191   1.89764   1.89987
 Alpha virt. eigenvalues --    1.90594   1.91365   1.91565   1.91772   1.92349
 Alpha virt. eigenvalues --    1.92516   1.92945   1.93888   1.94200   1.94464
 Alpha virt. eigenvalues --    1.94862   1.95061   1.96017   1.96708   1.96900
 Alpha virt. eigenvalues --    1.97101   1.97355   1.97951   1.98412   1.98815
 Alpha virt. eigenvalues --    1.99167   1.99725   1.99980   2.00228   2.00469
 Alpha virt. eigenvalues --    2.01163   2.02634   2.02762   2.03663   2.03988
 Alpha virt. eigenvalues --    2.04349   2.05720   2.05819   2.07000   2.07307
 Alpha virt. eigenvalues --    2.07748   2.09279   2.09962   2.10387   2.11738
 Alpha virt. eigenvalues --    2.12407   2.13062   2.13490   2.13999   2.14139
 Alpha virt. eigenvalues --    2.14548   2.15586   2.16732   2.17737   2.19078
 Alpha virt. eigenvalues --    2.19627   2.21014   2.21636   2.22377   2.22754
 Alpha virt. eigenvalues --    2.23208   2.23951   2.24295   2.24720   2.25153
 Alpha virt. eigenvalues --    2.26014   2.26396   2.27149   2.28216   2.29464
 Alpha virt. eigenvalues --    2.30364   2.30869   2.31629   2.32311   2.33315
 Alpha virt. eigenvalues --    2.34308   2.35431   2.37490   2.37587   2.38328
 Alpha virt. eigenvalues --    2.40220   2.40946   2.41699   2.43068   2.43997
 Alpha virt. eigenvalues --    2.44857   2.46958   2.48394   2.51327   2.53449
 Alpha virt. eigenvalues --    2.53908   2.54547   2.55084   2.56488   2.56734
 Alpha virt. eigenvalues --    2.57499   2.57808   2.58518   2.58848   2.59504
 Alpha virt. eigenvalues --    2.59955   2.60907   2.61209   2.61442   2.61695
 Alpha virt. eigenvalues --    2.61995   2.62352   2.63882   2.64435   2.64707
 Alpha virt. eigenvalues --    2.64898   2.65539   2.66373   2.66881   2.67461
 Alpha virt. eigenvalues --    2.68192   2.68548   2.69126   2.69860   2.70200
 Alpha virt. eigenvalues --    2.70532   2.71216   2.71440   2.71992   2.72837
 Alpha virt. eigenvalues --    2.73795   2.74265   2.76027   2.76501   2.77555
 Alpha virt. eigenvalues --    2.78088   2.79086   2.79298   2.79376   2.79695
 Alpha virt. eigenvalues --    2.80106   2.80927   2.81594   2.81855   2.81982
 Alpha virt. eigenvalues --    2.82882   2.83110   2.84116   2.84156   2.84565
 Alpha virt. eigenvalues --    2.84997   2.86387   2.86473   2.87155   2.88999
 Alpha virt. eigenvalues --    2.89794   2.90619   2.91664   2.92110   2.92856
 Alpha virt. eigenvalues --    2.93276   2.93635   2.94084   2.94319   2.95279
 Alpha virt. eigenvalues --    2.95607   2.96159   2.96713   2.96976   2.97571
 Alpha virt. eigenvalues --    2.97883   2.97992   2.98277   2.98819   2.99739
 Alpha virt. eigenvalues --    3.00399   3.01568   3.01796   3.02055   3.02203
 Alpha virt. eigenvalues --    3.02414   3.02471   3.02511   3.02593   3.02651
 Alpha virt. eigenvalues --    3.02744   3.02784   3.02933   3.03214   3.03306
 Alpha virt. eigenvalues --    3.03438   3.03768   3.03861   3.04155   3.04857
 Alpha virt. eigenvalues --    3.05428   3.05855   3.06575   3.06899   3.07597
 Alpha virt. eigenvalues --    3.09082   3.12061   3.13120   3.14722   3.14862
 Alpha virt. eigenvalues --    3.15346   3.15609   3.15873   3.15997   3.16109
 Alpha virt. eigenvalues --    3.16622   3.16633   3.19960   3.20865   3.21825
 Alpha virt. eigenvalues --    3.22179   3.32447   3.33392   3.34488   3.35376
 Alpha virt. eigenvalues --    3.36341   3.36754   3.37335   3.37797   3.37907
 Alpha virt. eigenvalues --    3.38408   3.38496   3.39225   3.41280   3.44523
 Alpha virt. eigenvalues --    3.48182   3.51173   3.51324   3.51915   3.52473
 Alpha virt. eigenvalues --    3.52972   3.53160   3.54083   3.54527   3.57165
 Alpha virt. eigenvalues --    3.63057   3.63167   3.67231   3.67885   3.68458
 Alpha virt. eigenvalues --    3.80322   3.81077   3.82444   3.82573   3.82822
 Alpha virt. eigenvalues --    3.83658
          Condensed to atoms (all electrons):
 Mulliken charges:
               1
     1  C    0.016185
     2  C   -0.013045
     3  C   -0.001365
     4  C    0.012955
     5  C    0.002460
     6  C   -0.006997
     7  C   -0.282051
     8  C    0.276676
     9  C    0.327428
    10  H   -0.000489
    11  H    0.010701
    12  H    0.013875
    13  H    0.011715
    14  H    0.001320
    15  O   -0.259902
    16  O   -0.218306
    17  O   -0.225785
    18  O   -0.209330
    19  C    0.166173
    20  C    0.152083
    21  H    0.078044
    22  H    0.064844
    23  H    0.070420
    24  H    0.080018
    25  H    0.084254
    26  H    0.082774
    27  O   -0.429757
    28  O   -0.434706
    29  O   -0.445958
    30  S    0.893868
    31  S    0.864842
    32  S    0.869639
    33  O   -0.440207
    34  O   -0.391019
    35  O   -0.424591
    36  O   -0.378068
    37  O   -0.426415
    38  O   -0.395587
    39  C    0.447823
    40  C    0.453335
    41  C    0.429248
    42  F   -0.114905
    43  F   -0.112030
    44  F   -0.121045
    45  F   -0.102150
    46  F   -0.115170
    47  F   -0.115741
    48  F   -0.124431
    49  F   -0.108915
    50  F   -0.112901
    51  C    0.068361
    52  H    0.033494
    53  C   -0.133437
    54  C   -0.165476
    55  C   -0.182848
    56  C    0.043812
    57  C   -0.013878
    58  C    0.000811
    59  H    0.055907
    60  H    0.047626
    61  H    0.034836
    62  N    0.136736
    63  N    0.108194
    64  N   -0.180351
    65  N   -0.004476
    66  C    0.121395
    67  H    0.072566
    68  Sc   0.249380
    69  C    0.200057
    70  H    0.055199
    71  H    0.052277
 Sum of Mulliken charges =  -0.00000
 Mulliken charges with hydrogens summed into heavy atoms:
               1
     1  C    0.016185
     2  C   -0.013534
     3  C    0.009336
     4  C    0.026830
     5  C    0.014175
     6  C   -0.005677
     7  C   -0.282051
     8  C    0.276676
     9  C    0.327428
    15  O   -0.259902
    16  O   -0.218306
    17  O   -0.225785
    18  O   -0.209330
    19  C    0.379481
    20  C    0.399130
    27  O   -0.429757
    28  O   -0.434706
    29  O   -0.445958
    30  S    0.893868
    31  S    0.864842
    32  S    0.869639
    33  O   -0.440207
    34  O   -0.391019
    35  O   -0.424591
    36  O   -0.378068
    37  O   -0.426415
    38  O   -0.395587
    39  C    0.447823
    40  C    0.453335
    41  C    0.429248
    42  F   -0.114905
    43  F   -0.112030
    44  F   -0.121045
    45  F   -0.102150
    46  F   -0.115170
    47  F   -0.115741
    48  F   -0.124431
    49  F   -0.108915
    50  F   -0.112901
    51  C    0.101855
    53  C   -0.133437
    54  C   -0.165476
    55  C   -0.182848
    56  C    0.099719
    57  C    0.033748
    58  C    0.035647
    62  N    0.136736
    63  N    0.108194
    64  N   -0.180351
    65  N   -0.004476
    66  C    0.193961
    68  Sc   0.249380
    69  C    0.307532
 APT charges:
               1
     1  C    0.019674
     2  C   -0.091996
     3  C   -0.040312
     4  C   -0.034018
     5  C   -0.044078
     6  C   -0.069145
     7  C   -0.480855
     8  C    1.579286
     9  C    1.731555
    10  H    0.071694
    11  H    0.045995
    12  H    0.048434
    13  H    0.047595
    14  H    0.054802
    15  O   -1.310125
    16  O   -1.256904
    17  O   -1.076588
    18  O   -1.113214
    19  C    0.517071
    20  C    0.540796
    21  H    0.053179
    22  H    0.032688
    23  H    0.044301
    24  H    0.048729
    25  H    0.056196
    26  H    0.023742
    27  O   -1.213636
    28  O   -1.238818
    29  O   -1.215193
    30  S    2.546291
    31  S    2.522826
    32  S    2.485474
    33  O   -1.238981
    34  O   -0.975599
    35  O   -1.222780
    36  O   -0.964451
    37  O   -1.208691
    38  O   -0.974133
    39  C    1.934280
    40  C    1.878999
    41  C    1.871093
    42  F   -0.640372
    43  F   -0.661047
    44  F   -0.699958
    45  F   -0.640632
    46  F   -0.659054
    47  F   -0.659976
    48  F   -0.670470
    49  F   -0.640227
    50  F   -0.679211
    51  C    0.087870
    52  H    0.040481
    53  C    0.804448
    54  C    0.160960
    55  C    0.060068
    56  C   -0.105919
    57  C    0.062053
    58  C   -0.009212
    59  H    0.123992
    60  H    0.061972
    61  H    0.089420
    62  N   -0.373702
    63  N   -0.344184
    64  N   -0.779521
    65  N   -0.100613
    66  C    0.549174
    67  H    0.015279
    68  Sc   3.072208
    69  C    0.040843
    70  H    0.041381
    71  H    0.068766
 Sum of APT charges =  -0.00000
 APT charges with hydrogens summed into heavy atoms:
               1
     1  C    0.019674
     2  C   -0.020301
     3  C    0.005682
     4  C    0.014416
     5  C    0.003517
     6  C   -0.014343
     7  C   -0.480855
     8  C    1.579286
     9  C    1.731555
    15  O   -1.310125
    16  O   -1.256904
    17  O   -1.076588
    18  O   -1.113214
    19  C    0.647238
    20  C    0.669464
    27  O   -1.213636
    28  O   -1.238818
    29  O   -1.215193
    30  S    2.546291
    31  S    2.522826
    32  S    2.485474
    33  O   -1.238981
    34  O   -0.975599
    35  O   -1.222780
    36  O   -0.964451
    37  O   -1.208691
    38  O   -0.974133
    39  C    1.934280
    40  C    1.878999
    41  C    1.871093
    42  F   -0.640372
    43  F   -0.661047
    44  F   -0.699958
    45  F   -0.640632
    46  F   -0.659054
    47  F   -0.659976
    48  F   -0.670470
    49  F   -0.640227
    50  F   -0.679211
    51  C    0.128351
    53  C    0.804448
    54  C    0.160960
    55  C    0.060068
    56  C    0.018073
    57  C    0.124025
    58  C    0.080208
    62  N   -0.373702
    63  N   -0.344184
    64  N   -0.779521
    65  N   -0.100613
    66  C    0.564453
    68  Sc   3.072208
    69  C    0.150990
 Electronic spatial extent (au):  <R**2>=          33184.9678
 Charge=              0.0000 electrons
 Dipole moment (field-independent basis, Debye):
[...]
 00001467,0.00005313,0.00002783,0.00003947,-0.00000318,-0.00000846,-0.0
 0004577,0.00001832,-0.00000039,-0.00001053,0.00007800,0.00031709,0.006
 03080,0.00256415,-0.00132722,-0.00378960,-0.00352436,-0.00650012,0.002
 71578,-0.00114906,-0.00103685,0.00140388,0.00068168,-0.00143874,0.0000
 5130,-0.00052846,0.00004766,0.00012091,-0.00004156,0.00039839,0.000040
 53,-0.00001027,0.00000037,-0.00000272,-0.00005210,0.00005246,0.0000804
 0,0.00013626,-0.00012363,-0.00003119,-0.00001205,0.00002239,-0.0000070
 6,-0.00000299,-0.00008062,-0.00001704,-0.00000825,0.00006356,0.0000812
 0,-0.00000103,0.00007447,-0.00011535,0.00003223,0.00005728,0.00026421,
 0.00014929,0.00055457,-0.00044586,0.00014163,-0.00041262,-0.00019071,0
 .00001614,0.00006258,0.00017931,-0.00016894,-0.00001626,0.00008728,-0.
 00030435,0.00013605,0.00008129,0.00002086,0.00005440,0.00016561,0.0000
 2500,0.00005064,0.00002888,-0.00000006,-0.00001781,-0.00006997,0.00004
 357,0.00010312,-0.00003342,0.00002565,0.00001937,0.00004227,0.00001993
 ,-0.00003710,-0.00004376,-0.00002552,-0.00004742,-0.00043042,0.0001326
 0,-0.00035237,-0.00001409,0.00001150,0.00002489,-0.00002596,-0.0000046
 4,0.00000683,-0.00001852,0.00001103,0.00000239,0.00000729,-0.00000346,
 0.00001907,0.00002697,-0.00000684,0.00000876,0.00001549,0.00001558,0.0
 0000727,0.00013190,-0.00040808,-0.00049729,0.00007476,-0.00016866,0.00
 012631,0.00004344,0.00005313,0.00006671,0.03799274,0.02779299,-0.09813
 791,0.02591257,0.01328778,-0.00859024,-0.01515663,-0.00773558,0.005608
 98,0.00075580,-0.00386326,-0.00258162,-0.00164275,-0.00128903,0.001932
 28,-0.00172010,-0.00187044,-0.00063780,-0.00025947,-0.00009540,-0.0002
 0366,0.00083016,-0.00028567,0.00003953,0.00004371,0.00012127,0.0000207
 2,-0.00000899,-0.00003382,0.00001735,0.00007128,0.00007870,0.00026103,
 -0.00120567,0.00029903,0.00117358,0.00037519,0.00030030,0.00015187,0.0
 0098713,0.00249389,-0.00021978,0.00033421,0.00004575,0.00044642,0.0101
 6459,-0.00756340,0.00176107,0.00072042,0.00012740,0.00050154,0.0004873
 2,0.00054982,-0.00200527,0.02339667,0.03323269,0.59392318,0.00111255,-
 0.00076670,-0.00051202,0.00026514,0.00017974,-0.00001451,-0.00007906,0
 .00013627,0.00003881,0.00003336,0.00000913,-0.00012828,0.00006328,-0.0
 0010335,0.00007501,-0.00005483,0.00007072,0.00019280,0.00201217,0.0241
 0749,0.01329662,0.00158111,0.00090244,0.00069484,0.00125640,0.00106597
 ,-0.00038889,0.00003523,-0.00011145,-0.00003799,-0.00001880,-0.0000051
 6,-0.00000326,-0.00000319,-0.00000670,-0.00000555,-0.00000331,-0.00000
 625,-0.00000666,0.00000739,-0.00001925,-0.00001314,-0.00055128,-0.0001
 7950,-0.00024030,-0.00036515,-0.00016593,-0.00004818,0.00005619,-0.000
 06522,-0.00006274,0.00016281,-0.00008320,0.00013099,0.00001548,0.00008
 117,-0.00010223,-0.00000455,-0.00012070,0.00009281,-0.00000609,-0.0000
 0966,-0.00000312,0.00000673,-0.00000067,0.00002248,0.00000370,0.000005
 22,-0.00000771,-0.00000824,-0.00000388,-0.00000091,0.00000036,0.000004
 49,0.00000109,0.00002438,0.00000836,-0.00002512,0.00005547,-0.00000445
 ,-0.00004172,0.00004295,-0.00013180,-0.00000220,0.00023027,0.00005275,
 0.00061387,-0.00079462,-0.00065009,-0.00078201,-0.00011355,0.00003057,
 0.00011007,0.00000786,0.00014331,0.00000042,0.00037205,-0.00016686,0.0
 0017526,0.00016349,0.00029454,0.00007036,0.00011022,-0.00001702,-0.000
 10465,0.00002573,-0.00000267,-0.00004008,0.00000796,-0.00009489,-0.000
 01425,-0.00001390,-0.00003563,0.00001417,-0.00003522,0.00008173,0.0000
 1092,-0.00005153,-0.00005641,0.00000239,-0.00097782,-0.00051068,-0.000
 81340,0.00000002,-0.00000788,-0.00001621,-0.00001658,0.00000028,-0.000
 00965,0.00001553,-0.00002158,0.00000870,0.00001655,-0.00000524,-0.0000
 1670,0.00002243,-0.00000116,0.00000088,0.00001760,0.00002101,-0.000001
 27,-0.00021069,-0.00070836,-0.00153056,0.00018530,-0.00010691,0.000298
 70,0.00003205,0.00030463,0.00021448,-0.00538201,-0.02014173,-0.0126901
 4,0.00077082,0.00044852,0.00009674,-0.00512640,-0.00180993,0.00203860,
 0.00030941,-0.00126439,-0.00100445,0.00015275,0.00020687,0.00086043,0.
 00095382,0.00123763,0.00030156,0.00040799,-0.00017679,0.00024550,-0.00
 057944,0.00015907,0.00026335,-0.00005244,-0.00006158,-0.00003818,0.000
 03426,-0.00000754,-0.00002864,-0.00003674,-0.00007136,-0.00017708,-0.0
 0044522,0.00004293,0.00039866,-0.00002967,0.00004852,-0.00015836,0.000
 62086,-0.00028907,0.00038409,0.00016390,0.00045642,-0.00075529,-0.0054
 4392,0.00140045,-0.00006069,-0.00003792,-0.00014272,-0.00002533,-0.000
 26571,0.00048880,0.00030062,-0.05367192,-0.04428071,-0.02568303,0.0644
 2225,0.00120050,0.00073627,0.00001375,-0.00022197,-0.00001379,-0.00019
 770,-0.00016610,-0.00001601,-0.00001914,0.00004670,0.00007269,-0.00010
 820,0.00004845,-0.00020401,0.00002638,-0.00021037,0.00018437,0.0002063
 9,0.00036462,-0.01307889,-0.00653669,-0.00040465,0.00033481,-0.0013468
 2,-0.00046628,-0.00055628,0.00108476,-0.00014317,0.00006610,0.00008902
 ,-0.00000420,-0.00000012,0.00000162,0.00001156,0.00001518,0.00000956,-
 0.00001021,-0.00001326,-0.00000784,0.00002999,0.00003740,0.00002606,0.
 00035850,0.00009094,-0.00002845,0.00024254,-0.00027470,0.00008574,-0.0
 0011655,-0.00020920,0.00033516,0.00005536,0.00031915,-0.00060532,0.000
 02078,-0.00011244,0.00009632,-0.00001179,-0.00004193,-0.00007934,-0.00
 000267,0.00000097,-0.00000786,-0.00001549,0.00001011,-0.00000975,0.000
 00802,0.00000427,-0.00000917,0.00000523,0.00000618,-0.00000337,-0.0000
 0189,-0.00000717,-0.00000209,0.00000676,0.00001423,-0.00000509,0.00000
 783,0.00001154,0.00000240,0.00000570,0.00001591,0.00001280,-0.00012083
 ,-0.00012736,0.00006255,0.00016350,0.00004818,-0.00004197,-0.00001530,
 -0.00001692,-0.00000084,-0.00002971,-0.00001810,-0.00004510,-0.0000728
 2,0.00005344,0.00002825,-0.00003671,-0.00006398,0.00001585,0.00000157,
 0.00001468,0.00001284,0.00000181,0.00000349,0.00000132,0.00003703,0.00
 000801,0.00002338,0.00000477,0.00000169,0.00001278,-0.00002151,-0.0000
 0189,0.00000423,0.00000151,0.00000660,-0.00000770,0.00024423,0.0001717
 3,0.00003331,0.00000105,0.00000044,0.00000080,0.00000699,0.00000429,-0
 .00000081,0.00000587,-0.00000506,0.00000332,-0.00000020,0.00000236,0.0
 0000325,0.00000149,0.00000100,0.00000094,0.00000158,0.00000073,0.00000
 160,-0.00071645,-0.00012792,-0.00007650,-0.00009167,0.00002040,-0.0000
 5869,-0.00004370,-0.00011786,-0.00005313,-0.00345188,-0.01103903,-0.00
 593049,0.00039631,0.00034421,-0.00020084,-0.00176680,0.00031892,0.0014
 5717,0.00000448,-0.00033873,-0.00044786,-0.00003045,-0.00013445,0.0003
 1781,-0.00052957,-0.00049327,-0.00029576,-0.00003564,-0.00000489,-0.00
 010346,0.00021766,-0.00008034,-0.00006918,0.00003916,0.00000786,0.0000
 2942,-0.00000813,-0.00001677,0.00000726,0.00002572,0.00003417,0.000085
 11,-0.00011560,0.00002790,0.00013169,0.00008023,0.00012091,-0.00008548
 ,0.00014297,0.00067799,-0.00022546,-0.00002721,0.00002417,0.00016193,0
 .00271726,-0.00016619,0.00059969,-0.00001617,0.00001054,0.00000285,-0.
 00001263,-0.00012411,-0.00016823,-0.04408540,-0.25276147,-0.12030861,0
 .04519110,0.26947889,-0.00055086,-0.00011560,0.00054689,0.00009314,0.0
 0005312,0.00001641,-0.00002577,0.00005344,0.00008870,-0.00003332,0.000
 00996,-0.00005542,0.00005569,0.00000652,0.00000669,-0.00029094,-0.0000
 0535,-0.00014300,-0.00063319,0.00369221,0.00101099,0.00019240,0.001200
 88,0.00001272,0.00030725,-0.00092166,0.00017867,0.00004578,-0.00010779
 ,-0.00007158,0.00000167,0.00000741,0.00000107,-0.00000453,-0.00000606,
 -0.00000676,-0.00000109,0.00001406,0.00000479,0.00000698,0.00001833,-0
 .00003162,-0.00015998,0.00013526,-0.00018237,0.00046185,-0.00005028,0.
 00021563,0.00008143,-0.00013438,0.00046435,-0.00010875,0.00038456,-0.0
 0005158,-0.00000723,-0.00000184,-0.00024345,0.00008421,0.00012350,-0.0
 0000797,0.00000014,-0.00000830,0.00001756,0.00000760,-0.00001279,0.000
 05225,0.00000140,0.00000593,0.00000514,-0.00000208,-0.00001144,-0.0000
 0951,0.00001465,0.00000033,-0.00000280,-0.00003179,-0.00000743,0.00002
 236,0.00003458,0.00001623,-0.00003325,0.00003794,-0.00002758,0.0000139
 4,-0.00024977,0.00000048,-0.00016142,-0.00032996,-0.00012110,0.0004039
 0,-0.00002842,-0.00002883,0.00004523,-0.00006861,0.00007133,-0.0000415
 6,0.00012285,-0.00003590,-0.00010100,0.00008292,0.00014889,-0.00010340
 ,0.00003372,0.00001744,-0.00004077,0.00000941,0.00000645,-0.00002165,0
 .00005505,-0.00004274,0.00000425,0.00001258,-0.00002121,0.00001048,-0.
 00002203,-0.00001096,0.00001156,-0.00002581,-0.00001082,-0.00000149,-0
 .00132309,-0.00073531,-0.00067000,0.00000909,-0.00000842,-0.00000742,0
 .00002138,-0.00000167,-0.00000050,0.00001371,-0.00000988,0.00000083,0.
 00000734,0.00000641,-0.00000265,0.00000930,-0.00000189,-0.00000139,0.0
 0000651,0.00001378,-0.00000026,-0.00028160,-0.00023461,-0.00115895,0.0
 0026241,-0.00002934,0.00020445,0.00011625,0.00028232,0.00013489,0.0036
 7919,0.01285264,0.00646451,-0.00074478,-0.00003586,0.00055126,0.003029
 82,0.00134873,-0.00052532,-0.00023695,0.00038293,0.00064191,0.00027907
 ,0.00042974,-0.00037088,-0.00007116,0.00005568,0.00023553,0.00001142,-
 0.00000479,-0.00001573,0.00003704,-0.00001743,0.00000748,0.00000352,-0
 .00000870,0.00000289,-0.00000462,0.00000513,0.00000075,-0.00001540,-0.
 00002879,-0.00000463,0.00028025,0.00002926,-0.00023284,-0.00016748,-0.
 00022827,0.00022385,-0.00033666,-0.00042124,-0.00025591,-0.00005740,-0
 .00004661,-0.00003410,-0.00028862,0.00055531,0.00059024,-0.00004802,0.
 00040558,0.00015044,-0.00024185,-0.00002173,0.00025405,-0.02537874,-0.
 12247754,-0.11422486,0.02671952,0.12782436,0.11774591,0.00156130,0.000
 48957,-0.00050953,-0.00256343,0.00076416,0.00125815,-0.00020262,0.0002
 1950,-0.00013682,0.00008467,0.00007849,-0.00017501,0.00020278,-0.00013
 400,-0.00001225,-0.00019942,0.00008307,0.00014086,-0.00955302,0.008173
 37,-0.02464272,-0.00296164,0.00272378,0.00439209,-0.00206146,0.0017155
 5,-0.00303192,-0.00403704,0.00214138,-0.00119554,-0.00000171,-0.000029
 79,-0.00000344,0.00001632,0.00000218,-0.00003109,0.00001124,-0.0000085
 9,-0.00000837,0.00005021,-0.00001011,-0.00012756,0.00180703,-0.0004914
 6,0.00065021,-0.00181647,-0.00100518,-0.00187503,0.00054130,0.00006218
 ,-0.00093688,-0.00315053,-0.00132697,0.00250328,0.00004760,-0.00023056
 ,0.00026284,-0.00050892,-0.00077165,0.00107842,-0.00000436,0.00002751,
 -0.00004715,-0.00001089,0.00000063,-0.00004419,-0.00000014,0.00004951,
 -0.00007527,0.00000175,0.00001455,-0.00003676,0.00017743,0.00008755,-0
 .00013439,0.00015686,0.00005192,-0.00012747,-0.00000555,-0.00001782,0.
 00005987,-0.00007950,0.00002510,0.00001537,0.00005003,-0.00005529,0.00
 019467,0.00001464,0.00018304,-0.00012608,-0.00006186,0.00004187,-0.000
 02706,0.00014189,-0.00010699,0.00004109,-0.00003383,-0.00010849,0.0000
 5401,-0.00001016,-0.00006137,0.00002703,0.00005036,-0.00002211,0.00005
 911,0.00000999,-0.00000653,0.00001739,-0.00010336,0.00005256,0.0000426
 8,-0.00002649,0.00002079,-0.00000286,0.00004784,-0.00001173,-0.0000341
 5,-0.00000551,-0.00000110,-0.00002748,0.00012699,0.00021726,0.00009239
 ,-0.00001193,0.00000977,0.00002105,-0.00002105,-0.00000588,0.00000750,
 -0.00002089,0.00001565,-0.00000142,-0.00000090,-0.00000134,0.00001704,
 0.00000859,-0.00000240,0.00000517,0.00000203,-0.00000033,0.00000437,-0
 .00007590,-0.00003214,0.00001713,-0.00001836,-0.00004611,-0.00001396,-
 0.00000814,-0.00006741,-0.00003072,0.00365217,-0.00700407,0.02622281,-
 0.00431477,-0.00249451,0.00117011,0.00120507,0.00059259,0.00038899,0.0
 0007084,0.00058748,-0.00003514,-0.00124804,-0.00161418,-0.00089513,-0.
 00002159,-0.00018996,0.00010053,-0.00008516,0.00001074,0.00004490,0.00
 008235,0.00000660,-0.00001263,-0.00002002,0.00001670,-0.00002585,-0.00
 000170,-0.00000054,-0.00000550,-0.00000396,-0.00001633,-0.00000163,0.0
 0004403,-0.00008327,-0.00003186,-0.00027627,0.00008785,-0.00043979,0.0
 0012519,0.00026708,-0.00003186,0.00002814,-0.00018818,0.00004763,0.000
 63202,-0.00139189,-0.00010542,0.00025408,0.00030004,0.00032674,0.00042
 195,0.00025020,-0.00093681,-0.05218940,0.01216813,-0.05082658,-0.00139
 803,0.00130489,-0.00445856,0.07548728,0.00024189,-0.00009544,-0.000419
 72,0.00146105,-0.00035473,-0.00068857,-0.00002794,0.00001508,0.0000035
 8,0.00004261,0.00001137,-0.00005415,0.00002720,-0.00003434,0.00000540,
 0.00003355,-0.00006211,0.00015090,0.00643934,-0.00655258,0.01786613,0.
 00198946,-0.00165273,-0.00243449,0.00045626,0.00095362,0.00046901,0.00
 186536,-0.00029474,0.00046007,0.00000002,0.00001798,0.00000617,-0.0000
 0594,-0.00000574,-0.00000193,-0.00000437,-0.00001069,0.00000084,-0.000
 00913,0.00001441,-0.00000863,-0.00024035,-0.00014097,0.00005177,0.0009
 2955,0.00042098,0.00101801,-0.00040587,0.00001227,0.00039732,-0.002704
 46,-0.00025732,0.00138709,0.00000056,0.00004440,-0.00014718,-0.0001989
 4,0.00007336,-0.00009075,-0.00000330,-0.00000536,0.00001672,0.00001114
 ,0.00000842,0.00002707,0.00000570,-0.00002180,0.00002914,-0.00000314,0
 .00000597,0.00001602,-0.00004036,-0.00001948,0.00003606,-0.00000477,-0
 .00001028,0.00001086,0.00003322,0.00000078,-0.00003180,0.00004957,-0.0
 0005030,0.00000940,0.00005753,0.00008042,0.00003310,0.00005396,-0.0000
 8266,-0.00010455,-0.00003699,0.00000017,0.00003531,-0.00006380,0.00009
 342,-0.00003510,-0.00000463,0.00007816,0.00002900,-0.00000892,-0.00000
 104,0.00002995,0.00002388,0.00000465,-0.00002796,0.00000884,-0.0000016
 0,-0.00001460,0.00004663,-0.00006183,-0.00000192,0.00000745,-0.0000248
 7,0.00001314,-0.00002875,0.00002004,0.00001858,-0.00002118,-0.00000024
 ,-0.00000297,0.00029025,0.00008113,0.00005923,0.00000731,-0.00000949,-
 0.00001297,0.00001036,-0.00000169,-0.00000342,0.00001419,-0.00001384,0
 .00000304,0.00000533,0.00000078,-0.00000055,0.00001046,-0.00000424,0.0
 0000001,0.00000535,0.00000321,0.00000115,-0.00019555,0.00001291,0.0000
 4421,-0.00006428,0.00002989,-0.00002839,-0.00003826,-0.00005044,-0.000
 01512,0.00059521,-0.00474560,0.01440959,-0.00203004,-0.00045399,0.0006
 9335,0.00128365,0.00055927,0.00134884,-0.00007891,0.00054246,-0.000030
 88,-0.00160097,-0.00229442,-0.00029963,0.00008144,0.00018368,-0.000226
 00,0.00011435,0.00004136,-0.00006837,-0.00021747,-0.00001003,0.0000325
 1,0.00000002,0.00002999,0.00001907,-0.00000287,0.00001259,0.00000578,0
 .00000275,0.00002885,-0.00001870,0.00012773,-0.00010102,-0.00007005,-0
 .00000297,0.00006060,-0.00018055,-0.00009827,-0.00017883,-0.00024162,-
 0.00014626,-0.00005165,-0.00013841,-0.00037240,0.00062158,0.00154136,-
 0.00019114,-0.00019476,-0.00062853,-0.00031000,-0.00011972,0.00022259,
 0.01289908,-0.05800635,0.05995861,-0.00476502,0.00686344,-0.02416406,-
 0.01530498,0.06504969,-0.00042936,0.00071273,-0.00005973,-0.00075305,0
 .00019479,-0.00061143,-0.00011410,-0.00026738,0.00031735,-0.00009543,0
 .00008468,0.00007131,-0.00008289,0.00001965,-0.00000477,0.00009411,0.0
 0001624,-0.00011385,-0.00148957,-0.00020757,0.00094377,0.00092990,-0.0
 0055739,-0.00026984,-0.00006984,0.00094148,-0.00028924,-0.00136874,0.0
 0024047,0.00132461,-0.00000367,-0.00000773,-0.00002466,-0.00002185,0.0
 0002338,0.00004153,-0.00000170,0.00000072,0.00000845,0.00003154,-0.000
 04720,0.00006245,-0.00001883,-0.00006895,0.00007677,0.00022488,0.00034
 062,0.00042394,-0.00021300,-0.00011457,0.00033989,0.00593251,0.0008319
 5,-0.00218306,0.00001158,-0.00000829,-0.00003072,0.00030549,-0.0002151
 9,-0.00000187,0.00000112,-0.00000324,0.00000154,0.00000019,0.00000147,
 0.00000384,0.00000169,-0.00000304,0.00000432,-0.00003243,0.00003060,-0
 .00000160,0.00000801,-0.00000101,0.00001065,0.00003962,0.00002497,-0.0
 0003469,0.00000833,0.00000222,-0.00000536,0.00000962,-0.00000472,0.000
 00682,0.00001554,0.00001990,0.00001655,0.00002246,-0.00002050,-0.00004
 138,-0.00001401,-0.00000180,0.00000635,-0.00002060,0.00001373,-0.00002
 443,-0.00000414,0.00002595,0.00001414,-0.00000517,-0.00000352,0.000011
 69,0.00000984,0.00000375,-0.00000238,0.00000307,0.00000065,-0.00000253
 ,0.00001773,-0.00000868,0.00000947,0.00000215,-0.00000504,0.00000752,-
 0.00000945,0.00000280,0.00000204,-0.00000648,-0.00000183,-0.00000377,0
 .00012606,0.00004733,0.00003060,0.00000207,-0.00000125,-0.00000080,0.0
 0000423,0.00000076,-0.00000047,0.00000459,-0.00000393,0.00000162,0.000
 00143,0.00000074,0.00000160,0.00000336,-0.00000071,0.00000050,0.000002
 05,0.00000207,0.00000077,-0.00008472,0.00000461,0.00002472,-0.00002557
 ,0.00000753,-0.00001098,-0.00001496,-0.00002388,-0.00000780,0.00093695
 ,0.00322814,-0.01141976,0.00146978,0.00060557,0.00067420,-0.00005843,-
 0.00065622,0.00033224,-0.00001221,-0.00034705,0.00010168,-0.00067593,0
 .00025993,0.00008693,-0.00007236,0.00005223,0.00008811,0.00009353,0.00
 001695,-0.00005472,0.00000646,-0.00009525,0.00002766,0.00001297,-0.000
 00214,0.00000729,0.00000098,0.00000477,0.00001283,-0.00001207,-0.00002
 073,-0.00000523,-0.00003901,0.00006571,-0.00001786,-0.00048980,-0.0003
 6687,-0.00041370,0.00008626,0.00031652,-0.00014438,-0.00006147,-0.0000
 7828,0.00004834,-0.00003373,-0.00007503,0.00052257,-0.00010023,0.00065
 470,-0.00014096,-0.00008119,-0.00005388,0.00002390,-0.05378231,0.06046
 576,-0.30241269,-0.00208025,0.00427525,-0.01152656,0.05195845,-0.07026
 846,0.32417070\\0.00000769,0.00000358,-0.00002028,-0.00000566,0.000003
 76,0.00000489,0.00000007,-0.00000393,0.00000109,0.00000308,0.00000062,
 -0.00000565,-0.00000115,0.00000382,0.00000056,-0.00000656,0.00000240,0
 .00000974,-0.00000607,-0.00000246,0.00000238,0.00003600,0.00000868,0.0
 0000070,-0.00000021,0.00002107,-0.00002660,0.00000677,-0.00000255,-0.0
 0000517,0.00000137,-0.00000258,-0.00000507,0.00000034,0.00000114,-0.00
 000164,-0.00000062,0.00000656,-0.00000218,0.00000299,0.00000605,-0.000
 00145,-0.00001392,-0.00006174,0.00003752,-0.00001808,-0.00000037,-0.00
 002269,-0.00002823,-0.00000727,0.00001407,0.00000825,-0.00000346,0.000
 00949,-0.00000250,0.00000559,-0.00000588,-0.00000876,-0.00001512,-0.00
 000085,0.00000118,0.00000783,0.00000646,0.00000123,0.00000558,0.000004
 52,0.00000229,-0.00000263,0.00000731,0.00000183,-0.00000638,-0.0000044
 9,-0.00000543,-0.00000465,-0.00000323,0.00000179,-0.00000727,-0.000002
 89,0.00000975,-0.00000593,0.00000399,0.00000088,0.00001278,-0.00000766
 ,0.00000389,-0.00001261,0.00000395,0.00001070,0.00000327,-0.00001213,0
 .00001972,-0.00003487,-0.00000093,-0.00000792,-0.00001864,-0.00001975,
 0.00002100,0.00000195,-0.00000032,-0.00000467,-0.00000098,0.00000506,-
 0.00000715,-0.00000573,0.00000757,-0.00000082,-0.00000536,-0.00000257,
 0.00000537,-0.00000456,-0.00000436,0.00000317,0.00000355,0.00000280,-0
 .00000037,-0.00000050,0.00000485,0.00000076,-0.00000610,-0.00000062,0.
 00000434,0.00000277,0.00000222,-0.00000137,-0.00000285,0.00000390,0.00
 000404,-0.00000154,0.00000401,-0.00000132,0.00000264,0.00000484,0.0000
 0309,0.00000082,-0.00000773,-0.00000091,-0.00000110,-0.00000243,-0.000
 00107,-0.00000208,-0.00000800,-0.00000703,-0.00000309,-0.00000862,0.00
 000200,0.00001246,-0.00001679,0.00000390,0.00001592,-0.00000728,0.0000
 0487,0.00001555,0.00001134,0.00000027,0.00000247,-0.00000047,0.0000002
 6,-0.00001652,0.00000167,0.00000080,-0.00000142,0.00000791,0.00000088,
 0.00000092,-0.00000072,0.00000303,-0.00000189,0.00000029,0.00000373,-0
 .00000044,0.00001068,-0.00000570,0.00000107,0.00000655,-0.00000229,-0.
 00000508,0.00000538,-0.00000029,0.00000471,0.00000871,-0.00000104,0.00
 000081,0.00000854,-0.00000098,0.00000252,0.00000436,-0.00000100,-0.000
 00678,0.00000460,-0.00000547,-0.00000745,0.00000147,-0.00000163,0.0000
 0662,0.00000571,0.00000331,-0.00000763,0.00001168,-0.00000453,-0.00000
 117,-0.00000255,-0.00003453,0.00011056,-0.00001243,0.00000616,-0.00000
 197,-0.00000517,0.00000007,-0.00000132,-0.00000142,-0.00000362,-0.0000
 0002,-0.00000082\\\@


 NEVER LISTEN TO CRITICISM
 OR YOU'LL BE DOIN' EVERYBODY ELSE'S THING BUT BUT YOUR OWN.

                                               -- ANDY CAPP
 Job cpu time:       2 days 16 hours 12 minutes 32.5 seconds.
 Elapsed time:       0 days  2 hours 45 minutes 32.5 seconds.
 File lengths (MBytes):  RWF=   6936 Int=      0 D2E=      0 Chk=     72 Scr=      8
 Normal termination of Gaussian 16 at Sun Feb  9 17:13:57 2025.
