 Entering Gaussian System, Link 0=/sysapps/ubuntu-applications/gaussian-new/avx/g16//g16
 Input=ylide.in
 Output=ylide.log
 Initial command:
 /sysapps/ubuntu-applications/gaussian-new/avx/g16/l1.exe "/data/temp-scratch/selhajj1/7490274/Gau-485363.inp" -scrdir="/data/temp-scratch/selhajj1/7490274/"
 Entering Link 1 = /sysapps/ubuntu-applications/gaussian-new/avx/g16/l1.exe PID=    485365.
  
 Copyright (c) 1988,1990,1992,1993,1995,1998,2003,2009,2016,
            Gaussian, Inc.  All Rights Reserved.
  
 This is part of the Gaussian(R) 16 program.  It is based on
 the Gaussian(R) 09 system (copyright 2009, Gaussian, Inc.),
 the Gaussian(R) 03 system (copyright 2003, Gaussian, Inc.),
 the Gaussian(R) 98 system (copyright 1998, Gaussian, Inc.),
 the Gaussian(R) 94 system (copyright 1995, Gaussian, Inc.),
 the Gaussian 92(TM) system (copyright 1992, Gaussian, Inc.),
 the Gaussian 90(TM) system (copyright 1990, Gaussian, Inc.),
 the Gaussian 88(TM) system (copyright 1988, Gaussian, Inc.),
 the Gaussian 86(TM) system (copyright 1986, Carnegie Mellon
 University), and the Gaussian 82(TM) system (copyright 1983,
 Carnegie Mellon University). Gaussian is a federally registered
 trademark of Gaussian, Inc.
  
 This software contains proprietary and confidential information,
 including trade secrets, belonging to Gaussian, Inc.
  
 This software is provided under written license and may be
 used, copied, transmitted, or stored only in accord with that
 written license.
  
 The following legend is applicable only to US Government
 contracts under FAR:
  
                    RESTRICTED RIGHTS LEGEND
  
 Use, reproduction and disclosure by the US Government is
 subject to restrictions as set forth in subparagraphs (a)
 and (c) of the Commercial Computer Software - Restricted
 Rights clause in FAR 52.227-19.
  
 Gaussian, Inc.
 340 Quinnipiac St., Bldg. 40, Wallingford CT 06492
  
  
 ---------------------------------------------------------------
 Warning -- This program may not be used in any manner that
 competes with the business of Gaussian, Inc. or will provide
 assistance to any competitor of Gaussian, Inc.  The licensee
 of this program is prohibited from giving any competitor of
 Gaussian, Inc. access to this program.  By using this program,
 the user acknowledges that Gaussian, Inc. is engaged in the
 business of creating and licensing software in the field of
 computational chemistry and represents and warrants to the
 licensee that it is not a competitor of Gaussian, Inc. and that
 it will not use this program in any manner prohibited above.
 ---------------------------------------------------------------
  

 Cite this work as:
 Gaussian 16, Revision A.03,
 M. J. Frisch, G. W. Trucks, H. B. Schlegel, G. E. Scuseria, 
 M. A. Robb, J. R. Cheeseman, G. Scalmani, V. Barone, 
 G. A. Petersson, H. Nakatsuji, X. Li, M. Caricato, A. V. Marenich, 
 J. Bloino, B. G. Janesko, R. Gomperts, B. Mennucci, H. P. Hratchian, 
 J. V. Ortiz, A. F. Izmaylov, J. L. Sonnenberg, D. Williams-Young, 
 F. Ding, F. Lipparini, F. Egidi, J. Goings, B. Peng, A. Petrone, 
 T. Henderson, D. Ranasinghe, V. G. Zakrzewski, J. Gao, N. Rega, 
 G. Zheng, W. Liang, M. Hada, M. Ehara, K. Toyota, R. Fukuda, 
 J. Hasegawa, M. Ishida, T. Nakajima, Y. Honda, O. Kitao, H. Nakai, 
 T. Vreven, K. Throssell, J. A. Montgomery, Jr., J. E. Peralta, 
 F. Ogliaro, M. J. Bearpark, J. J. Heyd, E. N. Brothers, K. N. Kudin, 
 V. N. Staroverov, T. A. Keith, R. Kobayashi, J. Normand, 
 K. Raghavachari, A. P. Rendell, J. C. Burant, S. S. Iyengar, 
 J. Tomasi, M. Cossi, J. M. Millam, M. Klene, C. Adamo, R. Cammi, 
 J. W. Ochterski, R. L. Martin, K. Morokuma, O. Farkas, 
 J. B. Foresman, and D. J. Fox, Gaussian, Inc., Wallingford CT, 2016.
 
 ******************************************
 Gaussian 16:  ES64L-G16RevA.03 25-Dec-2016
                28-Jan-2025 
 ******************************************
 %chk=ylide.chk
 %mem=616Gb
 %nprocshared=24
 Will use up to   24 processors via shared memory.
 -------------------------------------------------------------------
 #P MN15/gen scf=(maxcyc=500) freq scrf=(smd,solvent=DiChloroEthane)
 -------------------------------------------------------------------
 1/10=4,30=1,38=1/1,3;
 2/12=2,17=6,18=5,40=1/2;
 3/5=7,11=2,25=1,30=1,70=32201,71=2,72=10,74=-73,140=1/1,2,3;
 4//1;
 5/5=2,7=500,38=5,53=10,98=1/2;
 8/6=4,10=90,11=11/1;
 11/6=1,8=1,9=11,15=111,16=1/1,2,10;
 10/6=1/2;
 6/7=2,8=2,9=2,10=2,28=1/1;
 7/8=1,10=1,25=1/1,2,3,16;
 1/10=4,30=1/3;
 99//99;
 Leave Link    1 at Tue Jan 28 15:59:56 2025, MaxMem= 82678120448 cpu:              15.2 elap:               0.7
 (Enter /sysapps/ubuntu-applications/gaussian-new/avx/g16/l101.exe)
 ---
 Opt
 ---
 Symbolic Z-matrix:
 Charge =  0 Multiplicity = 1
 C                    -1.2208   -0.00242  -0.00022 
 C                    -1.86619  -1.25668  -0.00024 
 C                    -1.94999   1.20124  -0.00036 
 N                    -2.44571  -2.26877   0.00041 
 N                    -2.5472    2.20429  -0.00005 
 C                     0.8747    1.19787   0.0004 
 C                     2.09903  -1.19262  -0.0001 
 C                     2.25988   1.17265   0.00019 
 H                     0.28878   2.1167    0.0005 
 C                     2.91115  -0.05443  -0.00023 
 H                     2.52317  -2.1994   -0.00036 
 H                     2.80205   2.11889   0.00052 
 H                     3.99729  -0.14003  -0.00066 
 N                     0.17902   0.03276   0.00014 
 N                     0.77703  -1.15254  -0.00001 
 
 ITRead=  0  0  0  0  0  0  0  0  0  0  0  0  0  0  0
 MicOpt= -1 -1 -1 -1 -1 -1 -1 -1 -1 -1 -1 -1 -1 -1 -1
 NAtoms=     15 NQM=       15 NQMF=       0 NMMI=      0 NMMIF=      0
                NMic=       0 NMicF=      0.
                    Isotopes and Nuclear Properties:
 (Nuclear quadrupole moments (NQMom) in fm**2, nuclear magnetic moments (NMagM)
  in nuclear magnetons)

  Atom         1           2           3           4           5           6           7           8           9          10
 IAtWgt=          12          12          12          14          14          12          12          12           1          12
 AtmWgt=  12.0000000  12.0000000  12.0000000  14.0030740  14.0030740  12.0000000  12.0000000  12.0000000   1.0078250  12.0000000
 NucSpn=           0           0           0           2           2           0           0           0           1           0
 AtZEff=  -0.0000000  -0.0000000  -0.0000000  -0.0000000  -0.0000000  -0.0000000  -0.0000000  -0.0000000  -0.0000000  -0.0000000
 NQMom=    0.0000000   0.0000000   0.0000000   2.0440000   2.0440000   0.0000000   0.0000000   0.0000000   0.0000000   0.0000000
 NMagM=    0.0000000   0.0000000   0.0000000   0.4037610   0.4037610   0.0000000   0.0000000   0.0000000   2.7928460   0.0000000
 AtZNuc=   6.0000000   6.0000000   6.0000000   7.0000000   7.0000000   6.0000000   6.0000000   6.0000000   1.0000000   6.0000000

  Atom        11          12          13          14          15
 IAtWgt=           1           1           1          14          14
 AtmWgt=   1.0078250   1.0078250   1.0078250  14.0030740  14.0030740
 NucSpn=           1           1           1           2           2
 AtZEff=  -0.0000000  -0.0000000  -0.0000000  -0.0000000  -0.0000000
 NQMom=    0.0000000   0.0000000   0.0000000   2.0440000   2.0440000
 NMagM=    2.7928460   2.7928460   2.7928460   0.4037610   0.4037610
 AtZNuc=   1.0000000   1.0000000   1.0000000   7.0000000   7.0000000
 Leave Link  101 at Tue Jan 28 15:59:56 2025, MaxMem= 82678120448 cpu:               4.1 elap:               0.2
 (Enter /sysapps/ubuntu-applications/gaussian-new/avx/g16/l103.exe)

 GradGradGradGradGradGradGradGradGradGradGradGradGradGradGradGradGradGrad
 Berny optimization.
 Initialization pass.
 Trust Radius=3.00D-01 FncErr=1.00D-07 GrdErr=1.00D-07 EigMax=2.50D+02 EigMin=1.00D-04
 Number of steps in this run=      2 maximum allowed number of steps=      2.
 GradGradGradGradGradGradGradGradGradGradGradGradGradGradGradGradGradGrad

 Leave Link  103 at Tue Jan 28 15:59:56 2025, MaxMem= 82678120448 cpu:               0.7 elap:               0.0
 (Enter /sysapps/ubuntu-applications/gaussian-new/avx/g16/l202.exe)
                          Input orientation:                          
 ---------------------------------------------------------------------
 Center     Atomic      Atomic             Coordinates (Angstroms)
 Number     Number       Type             X           Y           Z
 ---------------------------------------------------------------------
      1          6           0       -1.220797   -0.002417   -0.000219
      2          6           0       -1.866189   -1.256682   -0.000235
      3          6           0       -1.949993    1.201241   -0.000363
      4          7           0       -2.445711   -2.268768    0.000407
      5          7           0       -2.547197    2.204288   -0.000053
      6          6           0        0.874703    1.197867    0.000399
      7          6           0        2.099033   -1.192616   -0.000097
      8          6           0        2.259884    1.172645    0.000188
      9          1           0        0.288780    2.116696    0.000499
     10          6           0        2.911151   -0.054434   -0.000232
     11          1           0        2.523173   -2.199400   -0.000355
     12          1           0        2.802050    2.118892    0.000516
     13          1           0        3.997292   -0.140034   -0.000658
     14          7           0        0.179020    0.032763    0.000138
     15          7           0        0.777026   -1.152538   -0.000013
 ---------------------------------------------------------------------
                    Distance matrix (angstroms):
                    1          2          3          4          5
     1  C    0.000000
     2  C    1.410571   0.000000
     3  C    1.407309   2.459351   0.000000
     4  N    2.576191   1.166261   3.505239   0.000000
     5  N    2.574662   3.527334   1.167371   4.474207   0.000000
     6  C    2.414912   3.679307   2.824698   4.800282   3.566831
     7  C    3.526733   3.965740   4.703739   4.670418   5.755555
     8  C    3.673678   4.788122   4.209974   5.829747   4.916535
     9  H    2.601819   4.002945   2.418711   5.168146   2.837329
    10  C    4.132275   4.926295   5.020701   5.796486   5.907232
    11  H    4.340973   4.489456   5.619037   4.969368   6.715737
    12  H    4.547884   5.760812   4.839834   6.840362   5.349929
    13  H    5.219903   5.968862   6.096656   6.785558   6.951704
    14  N    1.400259   2.417757   2.428588   3.490882   3.485367
    15  N    2.305228   2.645266   3.602348   3.410572   4.724271
                    6          7          8          9         10
     6  C    0.000000
     7  C    2.685776   0.000000
     8  C    1.385411   2.370724   0.000000
     9  H    1.089749   3.772077   2.185517   0.000000
    10  C    2.390686   1.398211   1.389198   3.404502   0.000000
    11  H    3.776093   1.092478   3.382308   4.860164   2.179772
    12  H    2.136107   3.385309   1.090563   2.513271   2.176063
    13  H    3.397137   2.170557   2.177548   4.341186   1.089509
    14  N    1.356998   2.277719   2.372620   2.086822   2.733522
    15  N    2.352434   1.322614   2.757779   3.305492   2.400067
                   11         12         13         14         15
    11  H    0.000000
    12  H    4.327288   0.000000
    13  H    2.532591   2.555651   0.000000
    14  N    3.236913   3.351451   3.822180   0.000000
    15  N    2.035915   3.847464   3.375689   1.327611   0.000000
 Stoichiometry    C7H4N4
 Framework group  C1[X(C7H4N4)]
 Deg. of freedom    39
 Full point group                 C1      NOp   1
 Largest Abelian subgroup         C1      NOp   1
 Largest concise Abelian subgroup C1      NOp   1
                         Standard orientation:                         
 ---------------------------------------------------------------------
 Center     Atomic      Atomic             Coordinates (Angstroms)
 Number     Number       Type             X           Y           Z
 ---------------------------------------------------------------------
      1          6           0       -1.220797    0.002417    0.000219
      2          6           0       -1.866189    1.256682    0.000235
      3          6           0       -1.949993   -1.201241    0.000363
      4          7           0       -2.445711    2.268768   -0.000407
      5          7           0       -2.547197   -2.204288    0.000053
      6          6           0        0.874703   -1.197867   -0.000399
      7          6           0        2.099033    1.192616    0.000097
      8          6           0        2.259884   -1.172645   -0.000188
      9          1           0        0.288780   -2.116696   -0.000499
     10          6           0        2.911151    0.054434    0.000232
     11          1           0        2.523173    2.199400    0.000355
     12          1           0        2.802050   -2.118892   -0.000516
     13          1           0        3.997292    0.140034    0.000658
     14          7           0        0.179020   -0.032763   -0.000138
     15          7           0        0.777026    1.152538    0.000013
 ---------------------------------------------------------------------
 Rotational constants (GHZ):           1.9457632           0.9294442           0.6289906
 Leave Link  202 at Tue Jan 28 15:59:56 2025, MaxMem= 82678120448 cpu:               0.1 elap:               0.0
 (Enter /sysapps/ubuntu-applications/gaussian-new/avx/g16/l301.exe)
 General basis read from cards:  (5D, 7F)
 Centers:       9     11     12     13
 S 3 1.00
     Exponent=  1.3010701000D+01 Coefficients=  1.9682158000D-02
     Exponent=  1.9622572000D+00 Coefficients=  1.3796524000D-01
     Exponent=  4.4453796000D-01 Coefficients=  4.7831935000D-01
 S 1 1.00
     Exponent=  1.2194962000D-01 Coefficients=  1.0000000000D+00
 P 1 1.00
     Exponent=  8.0000000000D-01 Coefficients=  1.0000000000D+00
 ****
 Centers:       1      2      3      6      7      8     10
 S 5 1.00
     Exponent=  1.2384016938D+03 Coefficients=  5.4568832082D-03
     Exponent=  1.8629004992D+02 Coefficients=  4.0638409211D-02
     Exponent=  4.2251176346D+01 Coefficients=  1.8025593888D-01
     Exponent=  1.1676557932D+01 Coefficients=  4.6315121755D-01
     Exponent=  3.5930506482D+00 Coefficients=  4.4087173314D-01
 S 1 1.00
     Exponent=  4.0245147363D-01 Coefficients=  1.0000000000D+00
 S 1 1.00
     Exponent=  1.3090182668D-01 Coefficients=  1.0000000000D+00
 P 3 1.00
     Exponent=  9.4680970621D+00 Coefficients=  3.8387871728D-02
     Exponent=  2.0103545142D+00 Coefficients=  2.1117025112D-01
     Exponent=  5.4771004707D-01 Coefficients=  5.1328172114D-01
 P 1 1.00
     Exponent=  1.5268613795D-01 Coefficients=  1.0000000000D+00
 D 1 1.00
     Exponent=  8.0000000000D-01 Coefficients=  1.0000000000D+00
 ****
 Centers:       4      5     14     15
 S 5 1.00
     Exponent=  1.7128415853D+03 Coefficients= -5.3934125305D-03
     Exponent=  2.5764812677D+02 Coefficients= -4.0221581118D-02
     Exponent=  5.8458245853D+01 Coefficients= -1.7931144990D-01
     Exponent=  1.6198367905D+01 Coefficients= -4.6376317823D-01
     Exponent=  5.0052600809D+00 Coefficients= -4.4171422662D-01
 S 1 1.00
     Exponent=  5.8731856571D-01 Coefficients=  1.0000000000D+00
 S 1 1.00
     Exponent=  1.8764592253D-01 Coefficients=  1.0000000000D+00
 P 3 1.00
     Exponent=  1.3571470233D+01 Coefficients= -4.0072398852D-02
     Exponent=  2.9257372874D+00 Coefficients= -2.1807045028D-01
     Exponent=  7.9927750754D-01 Coefficients= -5.1294466049D-01
 P 1 1.00
     Exponent=  2.1954348034D-01 Coefficients=  1.0000000000D+00
 D 1 1.00
     Exponent=  1.0000000000D+00 Coefficients=  1.0000000000D+00
 ****
 Ernie: Thresh=  0.10000D-02 Tol=  0.10000D-05 Strict=F.
 There are   185 symmetry adapted cartesian basis functions of A   symmetry.
 There are   174 symmetry adapted basis functions of A   symmetry.
   174 basis functions,   303 primitive gaussians,   185 cartesian basis functions
    37 alpha electrons       37 beta electrons
       nuclear repulsion energy       512.6797395635 Hartrees.
 IExCor= 7252 DFT=T Ex+Corr=MN15 ExCW=0 ScaHFX=  0.440000
 ScaDFX=  1.000000  1.000000  1.000000  1.000000 ScalE2=  1.000000  1.000000
 IRadAn=      5 IRanWt=     -1 IRanGd=            0 ICorTp=0 IEmpDi=  4
 NAtoms=   15 NActive=   15 NUniq=   15 SFac= 1.00D+00 NAtFMM=   60 NAOKFM=F Big=F
 Integral buffers will be    131072 words long.
 Raffenetti 2 integral format.
 Two-electron integral symmetry is turned on.
 Force inversion solution in PCM.
 ------------------------------------------------------------------------------
 Polarizable Continuum Model (PCM)
 =================================
 Model                : PCM.
 Atomic radii         : SMD-Coulomb.
 Polarization charges : Total charges.
 Charge compensation  : None.
 Solution method      : Matrix inversion.
 Cavity type          : VdW (van der Waals Surface) (Alpha=1.000).
 Cavity algorithm     : GePol (No added spheres)
                        Default sphere list used, NSphG=   15.
                        Lebedev-Laikov grids with approx.  5.0 points / Ang**2.
                        Smoothing algorithm: York/Karplus (Gamma=1.0000).
                        Polarization charges: spherical gaussians, with
                                              point-specific exponents (IZeta= 3).
                        Self-potential: point-specific (ISelfS= 7).
                        Self-field    : sphere-specific E.n sum rule (ISelfD= 2).
 1st derivatives      : Analytical E(r).r(x)/FMM algorithm (CHGder, D1EAlg=3).
                        Cavity 1st derivative terms included.
 2nd derivatives      : Analytical E(r).r(xy)/FMM algorithm (CHGder, D2EAlg=3).
                        Cavity 2nd derivative terms included.
 Solvent              : DiChloroEthane, Eps=  10.125000 Eps(inf)=   2.087447
 ------------------------------------------------------------------------------
 Spheres list:
 ISph  on   Nord     Re0    Alpha      Xe            Ye            Ze
    1   C      1    1.8500  1.000     -1.220797      0.002417      0.000219
    2   C      2    1.8500  1.000     -1.866189      1.256682      0.000235
    3   C      3    1.8500  1.000     -1.949993     -1.201241      0.000363
    4   N      4    1.8900  1.000     -2.445711      2.268768     -0.000407
    5   N      5    1.8900  1.000     -2.547197     -2.204288      0.000053
    6   C      6    1.8500  1.000      0.874703     -1.197867     -0.000399
    7   C      7    1.8500  1.000      2.099033      1.192616      0.000097
    8   C      8    1.8500  1.000      2.259884     -1.172645     -0.000188
    9   H      9    1.2000  1.000      0.288780     -2.116696     -0.000499
   10   C     10    1.8500  1.000      2.911151      0.054434      0.000232
   11   H     11    1.2000  1.000      2.523173      2.199400      0.000355
   12   H     12    1.2000  1.000      2.802050     -2.118892     -0.000516
   13   H     13    1.2000  1.000      3.997292      0.140034      0.000658
   14   N     14    1.8900  1.000      0.179020     -0.032763     -0.000138
   15   N     15    1.8900  1.000      0.777026      1.152538      0.000013
 ------------------------------------------------------------------------------
 GePol: Number of generator spheres                  =      15
 GePol: Total number of spheres                      =      15
 GePol: Number of exposed spheres                    =      15 (100.00%)
 GePol: Number of points                             =    1529
 GePol: Average weight of points                     =       0.12
 GePol: Minimum weight of points                     =   0.13D-08
 GePol: Maximum weight of points                     =    0.17992
 GePol: Number of points with low weight             =      62
 GePol: Fraction of low-weight points (<1% of avg)   =       4.05%
 GePol: Cavity surface area                          =    179.676 Ang**2
 GePol: Cavity volume                                =    158.572 Ang**3
 ------------------------------------------------------------------------------
 Atomic radii for non-electrostatic terms: SMD-CDS.
 ------------------------------------------------------------------------------
 PCM non-electrostatic energy =         0.0021726442 Hartrees.
 Nuclear repulsion after PCM non-electrostatic terms =      512.6819122076 Hartrees.
 Leave Link  301 at Tue Jan 28 15:59:56 2025, MaxMem= 82678120448 cpu:               2.1 elap:               0.1
 (Enter /sysapps/ubuntu-applications/gaussian-new/avx/g16/l302.exe)
 NPDir=0 NMtPBC=     1 NCelOv=     1 NCel=       1 NClECP=     1 NCelD=      1
         NCelK=      1 NCelE2=     1 NClLst=     1 CellRange=     0.0.
 One-electron integrals computed using PRISM.
 One-electron integral symmetry used in STVInt
 NBasis=   174 RedAO= T EigKep=  4.05D-04  NBF=   174
 NBsUse=   174 1.00D-06 EigRej= -1.00D+00 NBFU=   174
 Precomputing XC quadrature grid using
 IXCGrd= 4 IRadAn=           5 IRanWt=          -1 IRanGd=           0 AccXCQ= 0.00D+00.
 Generated NRdTot=       0 NPtTot=           0 NUsed=           0 NTot=          32
 NSgBfM=   184   184   184   184   184 MxSgAt=    15 MxSgA2=    15.
 Leave Link  302 at Tue Jan 28 15:59:56 2025, MaxMem= 82678120448 cpu:               4.0 elap:               0.2
 (Enter /sysapps/ubuntu-applications/gaussian-new/avx/g16/l303.exe)
 DipDrv:  MaxL=1.
 Leave Link  303 at Tue Jan 28 15:59:56 2025, MaxMem= 82678120448 cpu:               1.0 elap:               0.0
 (Enter /sysapps/ubuntu-applications/gaussian-new/avx/g16/l401.exe)
 ExpMin= 1.22D-01 ExpMax= 1.71D+03 ExpMxC= 2.58D+02 IAcc=3 IRadAn=         5 AccDes= 0.00D+00
 Harris functional with IExCor= 1009 and IRadAn=       5 diagonalized for initial guess.
 HarFok:  IExCor= 1009 AccDes= 0.00D+00 IRadAn=         5 IDoV= 1 UseB2=F ITyADJ=14
 ICtDFT=  3500011 ScaDFX=  1.000000  1.000000  1.000000  1.000000
 FoFCou: FMM=F IPFlag=           0 FMFlag=      100000 FMFlg1=           0
         NFxFlg=           0 DoJE=T BraDBF=F KetDBF=T FulRan=T
         wScrn=  0.000000 ICntrl=       500 IOpCl=  0 I1Cent=   200000004 NGrid=           0
         NMat0=    1 NMatS0=      1 NMatT0=    0 NMatD0=    1 NMtDS0=    0 NMtDT0=    0
 Petite list used in FoFCou.
 Harris En= -487.205812166281    
 JPrj=0 DoOrth=F DoCkMO=F.
 Leave Link  401 at Tue Jan 28 15:59:57 2025, MaxMem= 82678120448 cpu:              18.7 elap:               0.8
 (Enter /sysapps/ubuntu-applications/gaussian-new/avx/g16/l502.exe)
 Integral symmetry usage will be decided dynamically.
 Closed shell SCF:
 Using DIIS extrapolation, IDIIS=  1040.
 NGot= 82678120448 LenX= 82678045589 LenY= 82678010923
 Requested convergence on RMS density matrix=1.00D-08 within 500 cycles.
 Requested convergence on MAX density matrix=1.00D-06.
 Requested convergence on             energy=1.00D-06.
 No special actions if energy rises.
 Fock matrices will be formed incrementally for  20 cycles.

 Cycle   1  Pass 1  IDiag  1:
 FoFJK:  IHMeth= 1 ICntrl=       0 DoSepK=F KAlg= 0 I1Cent=           0 FoldK=F
 IRaf= 940000000 NMat=       1 IRICut=       1 DoRegI=T DoRafI=F ISym2E= 0 IDoP0=0 IntGTp=1.
 FoFCou: FMM=F IPFlag=           0 FMFlag=      100000 FMFlg1=           0
         NFxFlg=           0 DoJE=F BraDBF=F KetDBF=F FulRan=T
         wScrn=  0.000000 ICntrl=         0 IOpCl=  0 I1Cent=           0 NGrid=           0
         NMat0=    1 NMatS0=      1 NMatT0=    0 NMatD0=    1 NMtDS0=    0 NMtDT0=    0
 Symmetry not used in FoFCou.
 Inv3:  Mode=1 IEnd=     7013523.
 Iteration    1 A*A^-1 deviation from unit magnitude is 4.44D-15 for   1511.
 Iteration    1 A*A^-1 deviation from orthogonality  is 2.06D-15 for    938    370.
 Iteration    1 A^-1*A deviation from unit magnitude is 5.00D-15 for   1511.
 Iteration    1 A^-1*A deviation from orthogonality  is 2.67D-15 for   1525    792.
 E= -486.893247129731    
 DIIS: error= 2.97D-02 at cycle   1 NSaved=   1.
 NSaved= 1 IEnMin= 1 EnMin= -486.893247129731     IErMin= 1 ErrMin= 2.97D-02
 ErrMax= 2.97D-02  0.00D+00 EMaxC= 1.00D-01 BMatC= 1.85D-01 BMatP= 1.85D-01
 IDIUse=3 WtCom= 7.03D-01 WtEn= 2.97D-01
 Coeff-Com:  0.100D+01
 Coeff-En:   0.100D+01
 Coeff:      0.100D+01
 Gap=     0.157 Goal=   None    Shift=    0.000
 GapD=    0.157 DampG=1.000 DampE=0.500 DampFc=0.5000 IDamp=-1.
 Damping current iteration by 5.00D-01
 RMSDP=5.99D-03 MaxDP=1.71D-01              OVMax= 2.66D-01

 Cycle   2  Pass 1  IDiag  1:
 RMSU=  2.96D-03    CP:  9.83D-01
 E= -486.943902766146     Delta-E=       -0.050655636414 Rises=F Damp=T
 DIIS: error= 1.36D-02 at cycle   2 NSaved=   2.
 NSaved= 2 IEnMin= 2 EnMin= -486.943902766146     IErMin= 2 ErrMin= 1.36D-02
 ErrMax= 1.36D-02  0.00D+00 EMaxC= 1.00D-01 BMatC= 3.26D-02 BMatP= 1.85D-01
 IDIUse=3 WtCom= 8.64D-01 WtEn= 1.36D-01
 Coeff-Com:  0.233D+00 0.767D+00
 Coeff-En:   0.346D+00 0.654D+00
 Coeff:      0.248D+00 0.752D+00
 Gap=     0.179 Goal=   None    Shift=    0.000
 RMSDP=1.88D-03 MaxDP=4.38D-02 DE=-5.07D-02 OVMax= 1.98D-01

 Cycle   3  Pass 1  IDiag  1:
 RMSU=  1.86D-03    CP:  9.74D-01  9.62D-01
 E= -487.070491474302     Delta-E=       -0.126588708157 Rises=F Damp=F
 DIIS: error= 1.06D-02 at cycle   3 NSaved=   3.
 NSaved= 3 IEnMin= 3 EnMin= -487.070491474302     IErMin= 3 ErrMin= 1.06D-02
 ErrMax= 1.06D-02  0.00D+00 EMaxC= 1.00D-01 BMatC= 9.08D-03 BMatP= 3.26D-02
 IDIUse=3 WtCom= 8.94D-01 WtEn= 1.06D-01
 Coeff-Com:  0.553D-01 0.339D+00 0.606D+00
 Coeff-En:   0.000D+00 0.000D+00 0.100D+01
 Coeff:      0.494D-01 0.303D+00 0.648D+00
 Gap=     0.177 Goal=   None    Shift=    0.000
 RMSDP=7.44D-04 MaxDP=2.76D-02 DE=-1.27D-01 OVMax= 3.36D-02

 Cycle   4  Pass 1  IDiag  1:
 RMSU=  5.11D-04    CP:  9.77D-01  9.66D-01  7.15D-01
 E= -487.077146570120     Delta-E=       -0.006655095818 Rises=F Damp=F
 DIIS: error= 5.82D-03 at cycle   4 NSaved=   4.
 NSaved= 4 IEnMin= 4 EnMin= -487.077146570120     IErMin= 4 ErrMin= 5.82D-03
 ErrMax= 5.82D-03  0.00D+00 EMaxC= 1.00D-01 BMatC= 3.21D-03 BMatP= 9.08D-03
 IDIUse=3 WtCom= 9.42D-01 WtEn= 5.82D-02
 Coeff-Com:  0.269D-01 0.123D+00 0.399D+00 0.452D+00
 Coeff-En:   0.000D+00 0.000D+00 0.232D+00 0.768D+00
 Coeff:      0.253D-01 0.116D+00 0.389D+00 0.470D+00
 Gap=     0.175 Goal=   None    Shift=    0.000
 RMSDP=2.59D-04 MaxDP=7.71D-03 DE=-6.66D-03 OVMax= 1.35D-02

 Cycle   5  Pass 1  IDiag  1:
 RMSU=  1.85D-04    CP:  9.77D-01  9.46D-01  7.68D-01  7.24D-01
 E= -487.079873042994     Delta-E=       -0.002726472874 Rises=F Damp=F
 DIIS: error= 9.67D-04 at cycle   5 NSaved=   5.
 NSaved= 5 IEnMin= 5 EnMin= -487.079873042994     IErMin= 5 ErrMin= 9.67D-04
 ErrMax= 9.67D-04  0.00D+00 EMaxC= 1.00D-01 BMatC= 1.15D-04 BMatP= 3.21D-03
 IDIUse=3 WtCom= 9.90D-01 WtEn= 9.67D-03
 Coeff-Com:  0.450D-02-0.147D-01 0.708D-01 0.199D+00 0.741D+00
 Coeff-En:   0.000D+00 0.000D+00 0.000D+00 0.000D+00 0.100D+01
 Coeff:      0.446D-02-0.145D-01 0.702D-01 0.197D+00 0.743D+00
 Gap=     0.176 Goal=   None    Shift=    0.000
 RMSDP=7.36D-05 MaxDP=2.07D-03 DE=-2.73D-03 OVMax= 3.15D-03

 Cycle   6  Pass 1  IDiag  1:
 RMSU=  5.22D-05    CP:  9.77D-01  9.39D-01  7.85D-01  7.63D-01  8.65D-01
 E= -487.079978905769     Delta-E=       -0.000105862775 Rises=F Damp=F
 DIIS: error= 1.54D-04 at cycle   6 NSaved=   6.
 NSaved= 6 IEnMin= 6 EnMin= -487.079978905769     IErMin= 6 ErrMin= 1.54D-04
 ErrMax= 1.54D-04  0.00D+00 EMaxC= 1.00D-01 BMatC= 5.94D-06 BMatP= 1.15D-04
 IDIUse=3 WtCom= 9.98D-01 WtEn= 1.54D-03
 Coeff-Com:  0.432D-03-0.126D-01 0.615D-02 0.472D-01 0.289D+00 0.670D+00
 Coeff-En:   0.000D+00 0.000D+00 0.000D+00 0.000D+00 0.000D+00 0.100D+01
 Coeff:      0.431D-03-0.126D-01 0.614D-02 0.472D-01 0.288D+00 0.671D+00
 Gap=     0.176 Goal=   None    Shift=    0.000
 RMSDP=1.77D-05 MaxDP=5.60D-04 DE=-1.06D-04 OVMax= 1.03D-03

 Cycle   7  Pass 1  IDiag  1:
 RMSU=  1.54D-05    CP:  9.77D-01  9.39D-01  7.87D-01  7.69D-01  9.03D-01
                    CP:  9.50D-01
 E= -487.079984560460     Delta-E=       -0.000005654691 Rises=F Damp=F
 DIIS: error= 6.19D-05 at cycle   7 NSaved=   7.
 NSaved= 7 IEnMin= 7 EnMin= -487.079984560460     IErMin= 7 ErrMin= 6.19D-05
 ErrMax= 6.19D-05  0.00D+00 EMaxC= 1.00D-01 BMatC= 8.44D-07 BMatP= 5.94D-06
 IDIUse=1 WtCom= 1.00D+00 WtEn= 0.00D+00
 Coeff-Com: -0.289D-03-0.357D-02-0.401D-02-0.175D-02 0.432D-01 0.303D+00
 Coeff-Com:  0.664D+00
 Coeff:     -0.289D-03-0.357D-02-0.401D-02-0.175D-02 0.432D-01 0.303D+00
 Coeff:      0.664D+00
 Gap=     0.176 Goal=   None    Shift=    0.000
 RMSDP=6.67D-06 MaxDP=2.09D-04 DE=-5.65D-06 OVMax= 4.21D-04

 Cycle   8  Pass 1  IDiag  1:
 RMSU=  5.65D-06    CP:  9.77D-01  9.39D-01  7.88D-01  7.72D-01  9.11D-01
                    CP:  9.93D-01  9.32D-01
 E= -487.079985466575     Delta-E=       -0.000000906115 Rises=F Damp=F
 DIIS: error= 1.55D-05 at cycle   8 NSaved=   8.
 NSaved= 8 IEnMin= 8 EnMin= -487.079985466575     IErMin= 8 ErrMin= 1.55D-05
 ErrMax= 1.55D-05  0.00D+00 EMaxC= 1.00D-01 BMatC= 8.22D-08 BMatP= 8.44D-07
 IDIUse=1 WtCom= 1.00D+00 WtEn= 0.00D+00
 Coeff-Com: -0.172D-03 0.133D-03-0.231D-02-0.722D-02-0.204D-01 0.410D-01
 Coeff-Com:  0.249D+00 0.740D+00
 Coeff:     -0.172D-03 0.133D-03-0.231D-02-0.722D-02-0.204D-01 0.410D-01
 Coeff:      0.249D+00 0.740D+00
 Gap=     0.176 Goal=   None    Shift=    0.000
 RMSDP=3.03D-06 MaxDP=6.89D-05 DE=-9.06D-07 OVMax= 1.99D-04

 Cycle   9  Pass 1  IDiag  1:
 RMSU=  2.29D-06    CP:  9.77D-01  9.39D-01  7.88D-01  7.72D-01  9.16D-01
                    CP:  1.01D+00  1.01D+00  1.07D+00
 E= -487.079985576961     Delta-E=       -0.000000110386 Rises=F Damp=F
 DIIS: error= 1.08D-05 at cycle   9 NSaved=   9.
 NSaved= 9 IEnMin= 9 EnMin= -487.079985576961     IErMin= 9 ErrMin= 1.08D-05
 ErrMax= 1.08D-05  0.00D+00 EMaxC= 1.00D-01 BMatC= 2.53D-08 BMatP= 8.22D-08
 IDIUse=1 WtCom= 1.00D+00 WtEn= 0.00D+00
 Coeff-Com: -0.462D-04 0.627D-03-0.533D-03-0.371D-02-0.182D-01-0.212D-01
 Coeff-Com:  0.330D-01 0.398D+00 0.612D+00
 Coeff:     -0.462D-04 0.627D-03-0.533D-03-0.371D-02-0.182D-01-0.212D-01
 Coeff:      0.330D-01 0.398D+00 0.612D+00
 Gap=     0.176 Goal=   None    Shift=    0.000
 RMSDP=1.42D-06 MaxDP=3.80D-05 DE=-1.10D-07 OVMax= 1.42D-04

 Cycle  10  Pass 1  IDiag  1:
 RMSU=  9.58D-07    CP:  9.77D-01  9.39D-01  7.88D-01  7.72D-01  9.17D-01
                    CP:  1.02D+00  1.05D+00  1.22D+00  9.51D-01
 E= -487.079985613113     Delta-E=       -0.000000036151 Rises=F Damp=F
 DIIS: error= 3.83D-06 at cycle  10 NSaved=  10.
 NSaved=10 IEnMin=10 EnMin= -487.079985613113     IErMin=10 ErrMin= 3.83D-06
 ErrMax= 3.83D-06  0.00D+00 EMaxC= 1.00D-01 BMatC= 3.10D-09 BMatP= 2.53D-08
 IDIUse=1 WtCom= 1.00D+00 WtEn= 0.00D+00
 Coeff-Com:  0.163D-04 0.206D-03 0.298D-03 0.415D-04-0.305D-02-0.137D-01
 Coeff-Com: -0.334D-01-0.273D-01 0.230D+00 0.847D+00
 Coeff:      0.163D-04 0.206D-03 0.298D-03 0.415D-04-0.305D-02-0.137D-01
 Coeff:     -0.334D-01-0.273D-01 0.230D+00 0.847D+00
 Gap=     0.176 Goal=   None    Shift=    0.000
 RMSDP=7.53D-07 MaxDP=2.01D-05 DE=-3.62D-08 OVMax= 7.19D-05

 Cycle  11  Pass 1  IDiag  1:
 RMSU=  3.50D-07    CP:  9.77D-01  9.39D-01  7.88D-01  7.72D-01  9.17D-01
                    CP:  1.02D+00  1.06D+00  1.29D+00  1.14D+00  1.16D+00
 E= -487.079985618877     Delta-E=       -0.000000005765 Rises=F Damp=F
 DIIS: error= 1.72D-06 at cycle  11 NSaved=  11.
 NSaved=11 IEnMin=11 EnMin= -487.079985618877     IErMin=11 ErrMin= 1.72D-06
 ErrMax= 1.72D-06  0.00D+00 EMaxC= 1.00D-01 BMatC= 9.77D-10 BMatP= 3.10D-09
 IDIUse=1 WtCom= 1.00D+00 WtEn= 0.00D+00
 Coeff-Com:  0.172D-04 0.336D-04 0.274D-03 0.619D-03 0.864D-03-0.538D-02
 Coeff-Com: -0.265D-01-0.885D-01 0.449D-01 0.503D+00 0.571D+00
 Coeff:      0.172D-04 0.336D-04 0.274D-03 0.619D-03 0.864D-03-0.538D-02
 Coeff:     -0.265D-01-0.885D-01 0.449D-01 0.503D+00 0.571D+00
 Gap=     0.176 Goal=   None    Shift=    0.000
 RMSDP=2.75D-07 MaxDP=6.85D-06 DE=-5.76D-09 OVMax= 2.38D-05

 Cycle  12  Pass 1  IDiag  1:
 RMSU=  1.41D-07    CP:  9.77D-01  9.39D-01  7.88D-01  7.72D-01  9.17D-01
                    CP:  1.02D+00  1.07D+00  1.31D+00  1.20D+00  1.27D+00
                    CP:  8.60D-01
 E= -487.079985620062     Delta-E=       -0.000000001185 Rises=F Damp=F
 DIIS: error= 4.44D-07 at cycle  12 NSaved=  12.
 NSaved=12 IEnMin=12 EnMin= -487.079985620062     IErMin=12 ErrMin= 4.44D-07
 ErrMax= 4.44D-07  0.00D+00 EMaxC= 1.00D-01 BMatC= 5.03D-11 BMatP= 9.77D-10
 IDIUse=1 WtCom= 1.00D+00 WtEn= 0.00D+00
 Coeff-Com:  0.351D-05-0.100D-04 0.561D-04 0.197D-03 0.536D-03-0.108D-03
 Coeff-Com: -0.434D-02-0.254D-01-0.288D-02 0.683D-01 0.203D+00 0.760D+00
 Coeff:      0.351D-05-0.100D-04 0.561D-04 0.197D-03 0.536D-03-0.108D-03
 Coeff:     -0.434D-02-0.254D-01-0.288D-02 0.683D-01 0.203D+00 0.760D+00
 Gap=     0.176 Goal=   None    Shift=    0.000
 RMSDP=8.25D-08 MaxDP=2.01D-06 DE=-1.18D-09 OVMax= 8.76D-06

 Cycle  13  Pass 1  IDiag  1:
 RMSU=  6.08D-08    CP:  9.77D-01  9.39D-01  7.88D-01  7.72D-01  9.17D-01
                    CP:  1.02D+00  1.07D+00  1.31D+00  1.21D+00  1.30D+00
                    CP:  9.35D-01  9.88D-01
 E= -487.079985620136     Delta-E=       -0.000000000074 Rises=F Damp=F
 DIIS: error= 2.71D-07 at cycle  13 NSaved=  13.
 NSaved=13 IEnMin=13 EnMin= -487.079985620136     IErMin=13 ErrMin= 2.71D-07
 ErrMax= 2.71D-07  0.00D+00 EMaxC= 1.00D-01 BMatC= 1.26D-11 BMatP= 5.03D-11
 IDIUse=1 WtCom= 1.00D+00 WtEn= 0.00D+00
 Coeff-Com: -0.855D-06-0.116D-04-0.160D-04 0.864D-05 0.142D-03 0.803D-03
 Coeff-Com:  0.207D-02 0.165D-02-0.853D-02-0.580D-01-0.105D-01 0.353D+00
 Coeff-Com:  0.720D+00
 Coeff:     -0.855D-06-0.116D-04-0.160D-04 0.864D-05 0.142D-03 0.803D-03
 Coeff:      0.207D-02 0.165D-02-0.853D-02-0.580D-01-0.105D-01 0.353D+00
 Coeff:      0.720D+00
 Gap=     0.176 Goal=   None    Shift=    0.000
 RMSDP=3.55D-08 MaxDP=6.66D-07 DE=-7.45D-11 OVMax= 2.30D-06

 Cycle  14  Pass 1  IDiag  1:
 RMSU=  1.64D-08    CP:  9.77D-01  9.39D-01  7.88D-01  7.72D-01  9.17D-01
                    CP:  1.02D+00  1.07D+00  1.31D+00  1.21D+00  1.32D+00
                    CP:  9.64D-01  1.10D+00  9.26D-01
 E= -487.079985620153     Delta-E=       -0.000000000016 Rises=F Damp=F
 DIIS: error= 4.61D-08 at cycle  14 NSaved=  14.
 NSaved=14 IEnMin=14 EnMin= -487.079985620153     IErMin=14 ErrMin= 4.61D-08
 ErrMax= 4.61D-08  0.00D+00 EMaxC= 1.00D-01 BMatC= 4.14D-13 BMatP= 1.26D-11
 IDIUse=1 WtCom= 1.00D+00 WtEn= 0.00D+00
 Coeff-Com: -0.386D-06-0.286D-05-0.872D-05-0.930D-05-0.368D-05 0.230D-03
 Coeff-Com:  0.879D-03 0.230D-02-0.157D-02-0.221D-01-0.189D-01 0.578D-01
 Coeff-Com:  0.196D+00 0.786D+00
 Coeff:     -0.386D-06-0.286D-05-0.872D-05-0.930D-05-0.368D-05 0.230D-03
 Coeff:      0.879D-03 0.230D-02-0.157D-02-0.221D-01-0.189D-01 0.578D-01
 Coeff:      0.196D+00 0.786D+00
 Gap=     0.176 Goal=   None    Shift=    0.000
 RMSDP=6.96D-09 MaxDP=1.93D-07 DE=-1.61D-11 OVMax= 4.82D-07

 Error on total polarization charges =  0.02244
 SCF Done:  E(RMN15) =  -487.079985620     A.U. after   14 cycles
            NFock= 14  Conv=0.70D-08     -V/T= 2.0115
 KE= 4.815580982337D+02 PE=-2.154871786034D+03 EE= 6.735517899730D+02
 SMD-CDS (non-electrostatic) energy       (kcal/mol) =       1.36
 (included in total energy above)
 Leave Link  502 at Tue Jan 28 16:00:14 2025, MaxMem= 82678120448 cpu:             393.8 elap:              16.8
 (Enter /sysapps/ubuntu-applications/gaussian-new/avx/g16/l801.exe)
 DoSCS=F DFT=T ScalE2(SS,OS)=  1.000000  1.000000
 Range of M.O.s used for correlation:     1   174
 NBasis=   174 NAE=    37 NBE=    37 NFC=     0 NFV=     0
 NROrb=    174 NOA=    37 NOB=    37 NVA=   137 NVB=   137

 **** Warning!!: The largest alpha MO coefficient is  0.10270316D+02

 Leave Link  801 at Tue Jan 28 16:00:14 2025, MaxMem= 82678120448 cpu:               0.8 elap:               0.0
 (Enter /sysapps/ubuntu-applications/gaussian-new/avx/g16/l1101.exe)
 Using compressed storage, NAtomX=    15.
 Will process     16 centers per pass.
 Leave Link 1101 at Tue Jan 28 16:00:14 2025, MaxMem= 82678120448 cpu:               3.7 elap:               0.2
 (Enter /sysapps/ubuntu-applications/gaussian-new/avx/g16/l1102.exe)
 Symmetrizing basis deriv contribution to polar:
 IMax=3 JMax=2 DiffMx= 0.00D+00
 Leave Link 1102 at Tue Jan 28 16:00:15 2025, MaxMem= 82678120448 cpu:               2.1 elap:               0.1
 (Enter /sysapps/ubuntu-applications/gaussian-new/avx/g16/l1110.exe)
 Forming Gx(P) for the SCF density, NAtomX=    15.
 Integral derivatives from FoFJK, PRISM(SPDF).
 Do as many integral derivatives as possible in FoFJK.
 G2DrvN: MDV=   82678119262.
 G2DrvN: will do    16 centers at a time, making    1 passes.
 Calling FoFCou, ICntrl=  3107 FMM=F I1Cent=   0 AccDes= 0.00D+00.
 FoFJK:  IHMeth= 1 ICntrl=    3107 DoSepK=F KAlg= 0 I1Cent=           0 FoldK=F
 IRaf=         0 NMat=       1 IRICut=       1 DoRegI=T DoRafI=F ISym2E= 0 IDoP0=0 IntGTp=1.
 FoFCou: FMM=F IPFlag=           0 FMFlag=      100000 FMFlg1=           0
         NFxFlg=           0 DoJE=F BraDBF=F KetDBF=F FulRan=T
         wScrn=  0.000000 ICntrl=      3107 IOpCl=  0 I1Cent=           0 NGrid=           0
         NMat0=    1 NMatS0=      1 NMatT0=    0 NMatD0=    1 NMtDS0=    0 NMtDT0=    0
 Symmetry not used in FoFCou.
 NEqPCM:  Using equilibrium solvation (IEInf=0, Eps=  10.1250, EpsInf=   2.0874)
 G2PCM: DoFxE=T DoFxN=T DoGrad=T DoDP/DQ/DG/TGxP=FFFF NFrqRd=   0 IEInf=0 SqF1=F DoCFld=F IF1Alg=4.
 GePol: Maximum number of non-zero 1st derivatives   =     252
 End of G2Drv F.D. properties file   721 does not exist.
 End of G2Drv F.D. properties file   722 does not exist.
 End of G2Drv F.D. properties file   788 does not exist.
 Leave Link 1110 at Tue Jan 28 16:00:37 2025, MaxMem= 82678120448 cpu:             514.7 elap:              21.5
 (Enter /sysapps/ubuntu-applications/gaussian-new/avx/g16/l1002.exe)
 Minotr:  Closed shell wavefunction.
          IDoAtm=111111111111111
 NEqPCM:  Using equilibrium solvation (IEInf=0, Eps=  10.1250, EpsInf=   2.0874)
          Direct CPHF calculation.
          Differentiating once with respect to electric field.
                with respect to dipole field.
          Differentiating once with respect to nuclear coordinates.
          Requested convergence is 1.0D-08 RMS, and 1.0D-07 maximum.
          Secondary convergence is 1.0D-12 RMS, and 1.0D-12 maximum.
          NewPWx=T KeepS1=F KeepF1=F KeepIn=T MapXYZ=F SortEE=F KeepMc=T.
         4457 words used for storage of precomputed grid.
 Keep R1 ints in memory in canonical form, NReq=140161651.
 FoFCou: FMM=F IPFlag=           0 FMFlag=           0 FMFlg1=           0
         NFxFlg=           0 DoJE=F BraDBF=F KetDBF=F FulRan=T
         wScrn=  0.000000 ICntrl=       600 IOpCl=  0 I1Cent=           0 NGrid=           0
         NMat0=    1 NMatS0=  15225 NMatT0=    0 NMatD0=    1 NMtDS0=    0 NMtDT0=    0
 Symmetry not used in FoFCou.
 Two-electron integral symmetry not used.
          MDV=   82678120448 using IRadAn=       1.
          Solving linear equations simultaneously, MaxMat=       0.
          There are    48 degrees of freedom in the 1st order CPHF.  IDoFFX=6 NUNeed=     3.
     45 vectors produced by pass  0 Test12= 1.06D-14 2.08D-09 XBig12= 2.26D+02 1.32D+01.
 AX will form    45 AO Fock derivatives at one time.
     45 vectors produced by pass  1 Test12= 1.06D-14 2.08D-09 XBig12= 2.44D+01 1.12D+00.
     45 vectors produced by pass  2 Test12= 1.06D-14 2.08D-09 XBig12= 1.08D+00 1.52D-01.
     45 vectors produced by pass  3 Test12= 1.06D-14 2.08D-09 XBig12= 1.44D-02 1.89D-02.
     45 vectors produced by pass  4 Test12= 1.06D-14 2.08D-09 XBig12= 6.94D-05 1.42D-03.
     45 vectors produced by pass  5 Test12= 1.06D-14 2.08D-09 XBig12= 2.38D-07 7.50D-05.
     36 vectors produced by pass  6 Test12= 1.06D-14 2.08D-09 XBig12= 5.73D-10 4.69D-06.
      7 vectors produced by pass  7 Test12= 1.06D-14 2.08D-09 XBig12= 1.34D-12 1.82D-07.
      2 vectors produced by pass  8 Test12= 1.06D-14 2.08D-09 XBig12= 2.86D-15 6.67D-09.
 InvSVY:  IOpt=1 It=  1 EMax= 8.88D-15
 Solved reduced A of dimension   315 with    48 vectors.
 FullF1:  Do perturbations      1 to       3.
 Isotropic polarizability for W=    0.000000      149.28 Bohr**3.
 End of Minotr F.D. properties file   721 does not exist.
 End of Minotr F.D. properties file   722 does not exist.
 End of Minotr F.D. properties file   788 does not exist.
 Leave Link 1002 at Tue Jan 28 16:01:08 2025, MaxMem= 82678120448 cpu:             729.5 elap:              30.6
 (Enter /sysapps/ubuntu-applications/gaussian-new/avx/g16/l601.exe)
 Copying SCF densities to generalized density rwf, IOpCl= 0 IROHF=0.

 **********************************************************************

            Population analysis using the SCF density.

 **********************************************************************

 Orbital symmetries:
       Occupied  (A) (A) (A) (A) (A) (A) (A) (A) (A) (A) (A) (A)
                 (A) (A) (A) (A) (A) (A) (A) (A) (A) (A) (A) (A)
                 (A) (A) (A) (A) (A) (A) (A) (A) (A) (A) (A) (A)
                 (A)
       Virtual   (A) (A) (A) (A) (A) (A) (A) (A) (A) (A) (A) (A)
                 (A) (A) (A) (A) (A) (A) (A) (A) (A) (A) (A) (A)
                 (A) (A) (A) (A) (A) (A) (A) (A) (A) (A) (A) (A)
                 (A) (A) (A) (A) (A) (A) (A) (A) (A) (A) (A) (A)
                 (A) (A) (A) (A) (A) (A) (A) (A) (A) (A) (A) (A)
                 (A) (A) (A) (A) (A) (A) (A) (A) (A) (A) (A) (A)
                 (A) (A) (A) (A) (A) (A) (A) (A) (A) (A) (A) (A)
                 (A) (A) (A) (A) (A) (A) (A) (A) (A) (A) (A) (A)
                 (A) (A) (A) (A) (A) (A) (A) (A) (A) (A) (A) (A)
                 (A) (A) (A) (A) (A) (A) (A) (A) (A) (A) (A) (A)
                 (A) (A) (A) (A) (A) (A) (A) (A) (A) (A) (A) (A)
                 (A) (A) (A) (A) (A)
 The electronic state is 1-A.
 Alpha  occ. eigenvalues --  -14.27090 -14.17171 -14.10481 -14.09772 -10.13531
 Alpha  occ. eigenvalues --  -10.12579 -10.12467 -10.10510 -10.10502 -10.10091
 Alpha  occ. eigenvalues --  -10.09402  -1.14343  -0.95789  -0.93115  -0.92838
 Alpha  occ. eigenvalues --   -0.89513  -0.81787  -0.75318  -0.72553  -0.65043
 Alpha  occ. eigenvalues --   -0.62330  -0.58181  -0.56196  -0.55958  -0.53158
 Alpha  occ. eigenvalues --   -0.47875  -0.45051  -0.44289  -0.42033  -0.41416
 Alpha  occ. eigenvalues --   -0.39664  -0.39054  -0.38480  -0.38401  -0.36784
 Alpha  occ. eigenvalues --   -0.35600  -0.24422
 Alpha virt. eigenvalues --   -0.06789  -0.03153   0.01637   0.07328   0.09021
 Alpha virt. eigenvalues --    0.11171   0.11955   0.14043   0.15852   0.18025
 Alpha virt. eigenvalues --    0.19854   0.20085   0.21820   0.23267   0.24601
 Alpha virt. eigenvalues --    0.27955   0.30323   0.31110   0.36431   0.37847
 Alpha virt. eigenvalues --    0.40032   0.42578   0.44702   0.44871   0.47188
 Alpha virt. eigenvalues --    0.48188   0.49493   0.51768   0.52207   0.52226
 Alpha virt. eigenvalues --    0.54079   0.55527   0.55785   0.58001   0.62761
 Alpha virt. eigenvalues --    0.63310   0.64282   0.65147   0.67519   0.68794
 Alpha virt. eigenvalues --    0.69194   0.69621   0.70222   0.72168   0.72740
 Alpha virt. eigenvalues --    0.74366   0.75035   0.79011   0.81571   0.82178
 Alpha virt. eigenvalues --    0.86519   0.88145   0.89481   0.91376   0.92563
 Alpha virt. eigenvalues --    0.96418   0.96769   0.99153   1.02212   1.02999
 Alpha virt. eigenvalues --    1.06748   1.08540   1.15515   1.16958   1.19465
 Alpha virt. eigenvalues --    1.20427   1.23069   1.23718   1.25334   1.30355
 Alpha virt. eigenvalues --    1.34268   1.35698   1.37849   1.42499   1.43604
 Alpha virt. eigenvalues --    1.47011   1.51077   1.60106   1.61098   1.61423
 Alpha virt. eigenvalues --    1.65374   1.67867   1.68338   1.69952   1.72617
 Alpha virt. eigenvalues --    1.73459   1.75959   1.76771   1.78730   1.79387
 Alpha virt. eigenvalues --    1.83615   1.84739   1.90737   1.93636   1.93764
 Alpha virt. eigenvalues --    1.95647   2.02552   2.03889   2.07417   2.07559
 Alpha virt. eigenvalues --    2.10903   2.13190   2.16778   2.18963   2.21079
 Alpha virt. eigenvalues --    2.24438   2.24609   2.25016   2.25604   2.26610
 Alpha virt. eigenvalues --    2.28268   2.32225   2.37817   2.41275   2.45103
 Alpha virt. eigenvalues --    2.47742   2.61186   2.62502   2.64461   2.65344
 Alpha virt. eigenvalues --    2.67311   2.79596   2.79649   2.83717   2.85879
 Alpha virt. eigenvalues --    2.89004   2.90569   2.97134   2.99242   3.00317
 Alpha virt. eigenvalues --    3.01929   3.14249   3.18705   3.33535   3.41484
 Alpha virt. eigenvalues --    3.49757   3.59694
          Condensed to atoms (all electrons):
               1          2          3          4          5          6
     1  C    5.412630   0.348424   0.386731  -0.060522  -0.051449  -0.088077
     2  C    0.348424   4.942652  -0.033391   0.893959  -0.001764   0.007846
     3  C    0.386731  -0.033391   4.911375  -0.003091   0.901527  -0.005347
     4  N   -0.060522   0.893959  -0.003091   6.143822  -0.000043  -0.000077
     5  N   -0.051449  -0.001764   0.901527  -0.000043   6.118859  -0.002182
     6  C   -0.088077   0.007846  -0.005347  -0.000077  -0.002182   4.917478
     7  C    0.006805   0.001131  -0.000696  -0.000059  -0.000001  -0.088318
     8  C    0.005780  -0.001263   0.002636  -0.000005   0.000105   0.350603
     9  H   -0.011974   0.002543   0.017886   0.000023   0.005562   0.417688
    10  C    0.000783  -0.000055   0.000382  -0.000011   0.000001   0.043646
    11  H   -0.000284   0.000085  -0.000001   0.000043   0.000000  -0.001347
    12  H    0.000059   0.000005  -0.000127  -0.000000  -0.000006  -0.047708
    13  H    0.000049   0.000000  -0.000003   0.000000  -0.000000   0.012129
    14  N    0.399378  -0.030341  -0.046437   0.000140  -0.001393   0.364212
    15  N   -0.056615  -0.019027   0.011573  -0.010154   0.000031  -0.014037
               7          8          9         10         11         12
     1  C    0.006805   0.005780  -0.011974   0.000783  -0.000284   0.000059
     2  C    0.001131  -0.001263   0.002543  -0.000055   0.000085   0.000005
     3  C   -0.000696   0.002636   0.017886   0.000382  -0.000001  -0.000127
     4  N   -0.000059  -0.000005   0.000023  -0.000011   0.000043  -0.000000
     5  N   -0.000001   0.000105   0.005562   0.000001   0.000000  -0.000006
     6  C   -0.088318   0.350603   0.417688   0.043646  -0.001347  -0.047708
     7  C    4.784679   0.065632  -0.001747   0.318986   0.431528   0.010796
     8  C    0.065632   4.924290  -0.045628   0.297804   0.010259   0.444822
     9  H   -0.001747  -0.045628   0.568376   0.010980   0.000020  -0.010216
    10  C    0.318986   0.297804   0.010980   5.015758  -0.061509  -0.054620
    11  H    0.431528   0.010259   0.000020  -0.061509   0.592868  -0.000160
    12  H    0.010796   0.444822  -0.010216  -0.054620  -0.000160   0.591600
    13  H   -0.051121  -0.059752  -0.000092   0.444377  -0.008093  -0.009961
    14  N   -0.019216   0.015106  -0.035942  -0.065677   0.007762   0.004428
    15  N    0.494457  -0.049757   0.004250   0.002680  -0.043969  -0.000238
              13         14         15
     1  C    0.000049   0.399378  -0.056615
     2  C    0.000000  -0.030341  -0.019027
     3  C   -0.000003  -0.046437   0.011573
     4  N    0.000000   0.000140  -0.010154
     5  N   -0.000000  -0.001393   0.000031
     6  C    0.012129   0.364212  -0.014037
     7  C   -0.051121  -0.019216   0.494457
     8  C   -0.059752   0.015106  -0.049757
     9  H   -0.000092  -0.035942   0.004250
    10  C    0.444377  -0.065677   0.002680
    11  H   -0.008093   0.007762  -0.043969
    12  H   -0.009961   0.004428  -0.000238
    13  H    0.608942  -0.000024   0.004801
    14  N   -0.000024   6.196291   0.230065
    15  N    0.004801   0.230065   6.496394
 Mulliken charges:
               1
     1  C   -0.291717
     2  C   -0.110805
     3  C   -0.143018
     4  N    0.035973
     5  N    0.030754
     6  C    0.133491
     7  C    0.047143
     8  C    0.039367
     9  H    0.078271
    10  C    0.046476
    11  H    0.072797
    12  H    0.071325
    13  H    0.058748
    14  N   -0.018352
    15  N   -0.050454
 Sum of Mulliken charges =  -0.00000
 Mulliken charges with hydrogens summed into heavy atoms:
               1
     1  C   -0.291717
     2  C   -0.110805
     3  C   -0.143018
     4  N    0.035973
     5  N    0.030754
     6  C    0.211762
     7  C    0.119940
     8  C    0.110692
    10  C    0.105224
    14  N   -0.018352
    15  N   -0.050454
 APT charges:
               1
     1  C   -1.081331
     2  C    0.667633
     3  C    0.683101
     4  N   -0.723500
     5  N   -0.725742
     6  C   -0.364262
     7  C    0.210791
     8  C    0.329515
     9  H    0.147596
    10  C   -0.242470
    11  H    0.093038
    12  H    0.122384
    13  H    0.121790
    14  N    1.216763
    15  N   -0.455306
 Sum of APT charges =   0.00000
 APT charges with hydrogens summed into heavy atoms:
               1
     1  C   -1.081331
     2  C    0.667633
     3  C    0.683101
     4  N   -0.723500
     5  N   -0.725742
     6  C   -0.216666
     7  C    0.303829
     8  C    0.451899
    10  C   -0.120680
    14  N    1.216763
    15  N   -0.455306
 Electronic spatial extent (au):  <R**2>=           1662.1929
 Charge=             -0.0000 electrons
 Dipole moment (field-independent basis, Debye):
    X=             12.7985    Y=             -2.7415    Z=              0.0009  Tot=             13.0888
 Quadrupole moment (field-independent basis, Debye-Ang):
   XX=            -63.0004   YY=            -73.6847   ZZ=            -62.8940
   XY=             -0.0629   XZ=             -0.0017   YZ=              0.0044
 Traceless Quadrupole moment (field-independent basis, Debye-Ang):
   XX=              3.5260   YY=             -7.1584   ZZ=              3.6324
   XY=             -0.0629   XZ=             -0.0017   YZ=              0.0044
 Octapole moment (field-independent basis, Debye-Ang**2):
  XXX=            121.9568  YYY=            -13.0364  ZZZ=             -0.0015  XYY=             73.9841
  XXY=              2.2413  XXZ=              0.0142  XZZ=              1.0111  YZZ=              0.6962
  YYZ=              0.0018  XYZ=             -0.0010
 Hexadecapole moment (field-independent basis, Debye-Ang**3):
 XXXX=          -1413.6795 YYYY=           -820.4469 ZZZZ=            -62.0236 XXXY=             -2.8487
 XXXZ=              0.0158 YYYX=              3.4050 YYYZ=              0.0280 ZZZX=              0.0029
 ZZZY=              0.0009 XXYY=           -467.1282 XXZZ=           -267.9753 YYZZ=           -135.7207
 XXYZ=              0.0287 YYXZ=             -0.0153 ZZXY=              1.2173
 N-N= 5.126819122076D+02 E-N=-2.154871787835D+03  KE= 4.815580982337D+02
  Exact polarizability: 245.870  -1.444 150.892   0.005   0.004  51.066
 Approx polarizability: 228.928  -0.942 171.283   0.011   0.001  56.039
 No NMR shielding tensors so no spin-rotation constants.
 Leave Link  601 at Tue Jan 28 16:01:08 2025, MaxMem= 82678120448 cpu:               6.2 elap:               0.3
 (Enter /sysapps/ubuntu-applications/gaussian-new/avx/g16/l701.exe)
 ... and contract with generalized density number  0.
 Compute integral second derivatives.
 D2PCM: PCM CHGder 2nd derivatives, FixD1E=F FixD2E=F DoIter=F DoCFld=F I1PDM=0
 GePol: Maximum number of non-zero 2nd derivatives   =     252
 Leave Link  701 at Tue Jan 28 16:01:12 2025, MaxMem= 82678120448 cpu:              86.3 elap:               3.6
 (Enter /sysapps/ubuntu-applications/gaussian-new/avx/g16/l702.exe)
 L702 exits ... SP integral derivatives will be done elsewhere.
 Leave Link  702 at Tue Jan 28 16:01:12 2025, MaxMem= 82678120448 cpu:               1.4 elap:               0.1
 (Enter /sysapps/ubuntu-applications/gaussian-new/avx/g16/l703.exe)
 Integral derivatives from FoFJK, PRISM(SPDF).
 Compute integral second derivatives, UseDBF=F ICtDFT=           0.
 Calling FoFJK, ICntrl=    100127 FMM=F ISym2X=0 I1Cent= 0 IOpClX= 0 NMat=1 NMatS=1 NMatT=0.
 FoFJK:  IHMeth= 1 ICntrl=  100127 DoSepK=F KAlg= 0 I1Cent=           0 FoldK=F
 IRaf=         0 NMat=       1 IRICut=       1 DoRegI=T DoRafI=F ISym2E= 0 IDoP0=0 IntGTp=1.
 FoFCou: FMM=F IPFlag=           0 FMFlag=      100000 FMFlg1=         800
         NFxFlg=           0 DoJE=F BraDBF=F KetDBF=F FulRan=T
         wScrn=  0.000000 ICntrl=    100127 IOpCl=  0 I1Cent=           0 NGrid=           0
         NMat0=    1 NMatS0=      1 NMatT0=    0 NMatD0=    1 NMtDS0=    0 NMtDT0=    0
 Symmetry not used in FoFCou.
 Leave Link  703 at Tue Jan 28 16:01:30 2025, MaxMem= 82678120448 cpu:             433.7 elap:              18.1
 (Enter /sysapps/ubuntu-applications/gaussian-new/avx/g16/l716.exe)
 Dipole        = 5.03531158D+00-1.07859947D+00 3.58219205D-04
 Polarizability= 2.45869796D+02-1.44407567D+00 1.50892486D+02
                 5.05088023D-03 3.89782296D-03 5.10661764D+01
 Full mass-weighted force constant matrix:
 Low frequencies ---  -32.5423  -11.3312    0.0002    0.0006    0.0010   14.0653
 Low frequencies ---   57.6995  105.4014  134.0022
 Diagonal vibrational polarizability:
       60.0123060       3.9070579      34.0455606
 Harmonic frequencies (cm**-1), IR intensities (KM/Mole), Raman scattering
 activities (A**4/AMU), depolarization ratios for plane and unpolarized
 incident light, reduced masses (AMU), force constants (mDyne/A),
 and normal coordinates:
                      1                      2                      3
                      A                      A                      A
 Frequencies --     56.5001               105.3859               133.9807
 Red. masses --      5.3021                 6.7664                10.2409
 Frc consts  --      0.0100                 0.0443                 0.1083
 IR Inten    --      2.6501                 1.2296                16.0412
  Atom  AN      X      Y      Z        X      Y      Z        X      Y      Z
     1   6     0.00   0.00   0.03    -0.00  -0.00  -0.26    -0.11   0.13   0.00
     2   6    -0.00   0.00   0.11     0.00  -0.00  -0.00    -0.07   0.15  -0.00
     3   6     0.00   0.00  -0.11     0.00  -0.00  -0.03     0.09   0.01   0.00
     4   7    -0.00   0.00   0.20     0.00   0.00   0.28     0.06   0.23  -0.00
     5   7     0.00   0.00  -0.24    -0.00  -0.00   0.21     0.62  -0.31   0.00
     6   6    -0.00  -0.00   0.28     0.00  -0.00  -0.19    -0.20   0.03  -0.00
     7   6     0.00   0.00  -0.25    -0.00   0.00   0.02    -0.01  -0.08   0.00
     8   6    -0.00  -0.00   0.23     0.00   0.00   0.14    -0.20  -0.10  -0.00
     9   1    -0.00  -0.00   0.50     0.00  -0.00  -0.30    -0.26   0.07   0.00
    10   6     0.00   0.00  -0.05    -0.00   0.00   0.31    -0.10  -0.15  -0.00
    11   1     0.00   0.00  -0.45    -0.00   0.00   0.03     0.08  -0.12   0.00
    12   1    -0.00  -0.00   0.41     0.00   0.00   0.27    -0.29  -0.14  -0.00
    13   1     0.00   0.00  -0.11    -0.00   0.00   0.60    -0.10  -0.24  -0.00
    14   7     0.00  -0.00   0.04    -0.00  -0.00  -0.26    -0.10   0.09  -0.00
    15   7     0.00   0.00  -0.21    -0.00  -0.00  -0.26    -0.02   0.04   0.00
                      4                      5                      6
                      A                      A                      A
 Frequencies --    143.0244               234.1639               360.0152
 Red. masses --      9.7097                 6.9248                 7.7261
 Frc consts  --      0.1170                 0.2237                 0.5900
 IR Inten    --      4.2545                 3.0190                 3.3269
  Atom  AN      X      Y      Z        X      Y      Z        X      Y      Z
     1   6    -0.08  -0.15   0.00     0.00  -0.00   0.44    -0.01  -0.10  -0.00
     2   6     0.13  -0.04   0.00    -0.00  -0.00   0.19    -0.23  -0.26   0.00
     3   6    -0.10  -0.14   0.00     0.00  -0.00   0.20     0.18  -0.26  -0.00
     4   7     0.61   0.24  -0.00     0.00  -0.00  -0.18     0.20  -0.02   0.00
     5   7    -0.08  -0.15  -0.00     0.00   0.00  -0.20    -0.19  -0.05   0.00
     6   6     0.03  -0.04   0.00    -0.00   0.00  -0.24    -0.11   0.22  -0.00
     7   6    -0.21   0.10  -0.00     0.00  -0.00  -0.08     0.16   0.01  -0.00
     8   6     0.03   0.12  -0.00    -0.00   0.00  -0.03    -0.15  -0.02   0.00
     9   1     0.12  -0.10   0.00    -0.00   0.00  -0.36    -0.23   0.30  -0.00
    10   6    -0.09   0.19  -0.00    -0.00  -0.00   0.25     0.01  -0.10  -0.00
    11   1    -0.32   0.15  -0.00     0.00  -0.00  -0.21     0.33  -0.06  -0.00
    12   1     0.14   0.18  -0.00    -0.00  -0.00  -0.04    -0.31  -0.11   0.00
    13   1    -0.10   0.30  -0.00    -0.00  -0.00   0.55     0.02  -0.25  -0.00
    14   7    -0.08  -0.11   0.00    -0.00   0.00  -0.03     0.01   0.27  -0.00
    15   7    -0.19  -0.05   0.00     0.00   0.00  -0.22     0.11   0.24   0.00
                      7                      8                      9
                      A                      A                      A
 Frequencies --    412.1736               449.3513               501.0059
 Red. masses --      3.5467                 9.5693                 4.8532
 Frc consts  --      0.3550                 1.1384                 0.7177
 IR Inten    --      8.2351                 5.5273                 7.8465
  Atom  AN      X      Y      Z        X      Y      Z        X      Y      Z
     1   6    -0.00   0.00  -0.00     0.26  -0.02  -0.00    -0.00   0.00   0.04
     2   6     0.00   0.00  -0.01     0.38  -0.05   0.00    -0.00   0.00   0.36
     3   6    -0.00   0.00   0.02     0.31   0.04  -0.00    -0.00   0.00  -0.14
     4   7    -0.00   0.00   0.01     0.06  -0.26  -0.00     0.00  -0.00  -0.17
     5   7     0.00  -0.00  -0.01     0.07   0.21   0.00     0.00  -0.00   0.06
     6   6     0.00  -0.00  -0.22    -0.16  -0.08  -0.00     0.00   0.00  -0.01
     7   6     0.00   0.00  -0.20    -0.19   0.10   0.00     0.00  -0.00   0.15
     8   6    -0.00  -0.00   0.25    -0.23  -0.09   0.00     0.00   0.00   0.14
     9   1     0.00  -0.00  -0.55    -0.31   0.02   0.00     0.00   0.00   0.26
    10   6     0.00   0.00  -0.06    -0.36  -0.01  -0.00     0.00   0.00  -0.18
    11   1    -0.00   0.00  -0.40    -0.08   0.05   0.00    -0.00  -0.00   0.55
    12   1     0.00  -0.00   0.55    -0.12  -0.03   0.00    -0.00  -0.00   0.47
    13   1     0.00   0.00  -0.12    -0.36  -0.03  -0.00     0.00   0.00  -0.27
    14   7    -0.00  -0.00  -0.01     0.07   0.02  -0.00    -0.00   0.00  -0.26
    15   7    -0.00  -0.00   0.25    -0.16   0.12   0.00     0.00  -0.00  -0.02
                     10                     11                     12
                      A                      A                      A
 Frequencies --    508.5654               542.8203               618.5221
 Red. masses --      6.2480                10.1806                12.0032
 Frc consts  --      0.9521                 1.7674                 2.7056
 IR Inten    --      6.9513                 0.0914                 1.4290
  Atom  AN      X      Y      Z        X      Y      Z        X      Y      Z
     1   6     0.00   0.00   0.00     0.03   0.11   0.00     0.10  -0.01  -0.00
     2   6    -0.00  -0.00  -0.24    -0.48  -0.06   0.00    -0.37  -0.47   0.00
     3   6     0.00  -0.00   0.47     0.54  -0.07  -0.00    -0.37   0.50   0.00
     4   7     0.00   0.00   0.11     0.00   0.25  -0.00     0.24  -0.17  -0.00
     5   7     0.00   0.00  -0.22     0.01   0.28   0.00     0.25   0.17  -0.00
     6   6     0.00  -0.00   0.01     0.08  -0.17  -0.00     0.05  -0.04   0.00
     7   6    -0.00  -0.00   0.16    -0.14  -0.05  -0.00    -0.03   0.03  -0.00
     8   6     0.00  -0.00   0.10     0.10  -0.06   0.00     0.06  -0.09  -0.00
     9   1     0.00  -0.00   0.24     0.16  -0.22  -0.00    -0.06   0.02  -0.00
    10   6     0.00   0.00  -0.16    -0.05   0.02   0.00    -0.08  -0.02   0.00
    11   1    -0.00  -0.00   0.55    -0.22  -0.02  -0.00     0.05  -0.00  -0.00
    12   1     0.00  -0.00   0.34     0.22   0.01  -0.00     0.13  -0.05  -0.00
    13   1     0.00   0.00  -0.25    -0.06   0.16   0.00    -0.08   0.05   0.00
    14   7    -0.00  -0.00  -0.23     0.00  -0.13   0.00     0.08   0.01   0.00
    15   7    -0.00  -0.00  -0.02    -0.09  -0.15   0.00    -0.02   0.08   0.00
                     13                     14                     15
                      A                      A                      A
 Frequencies --    643.2798               644.5391               724.1199
 Red. masses --      8.9627                 7.1351                 6.9599
 Frc consts  --      2.1852                 1.7464                 2.1502
 IR Inten    --     16.4872                12.2843                25.7514
  Atom  AN      X      Y      Z        X      Y      Z        X      Y      Z
     1   6     0.00  -0.00   0.53     0.01   0.01   0.00     0.05  -0.00  -0.00
     2   6    -0.00  -0.00  -0.42    -0.04  -0.09  -0.00    -0.10   0.09   0.00
     3   6    -0.00   0.00  -0.37     0.03   0.04  -0.00    -0.11  -0.08   0.00
     4   7     0.00   0.00   0.17     0.04  -0.05   0.00    -0.07   0.15  -0.00
     5   7     0.00  -0.00   0.15     0.03   0.05   0.00    -0.08  -0.15  -0.00
     6   6     0.00   0.00  -0.09    -0.26  -0.17  -0.00     0.04  -0.28  -0.00
     7   6    -0.00  -0.00   0.12     0.21   0.16   0.00     0.13   0.33  -0.00
     8   6     0.00  -0.00   0.10    -0.31   0.31   0.00     0.01  -0.18  -0.00
     9   1     0.00   0.00   0.01    -0.12  -0.26   0.00    -0.16  -0.17   0.00
    10   6    -0.00  -0.00  -0.13     0.08   0.16  -0.00    -0.30   0.03   0.00
    11   1     0.00  -0.00   0.40    -0.07   0.29   0.00     0.28   0.27   0.00
    12   1     0.00  -0.00   0.33    -0.23   0.36   0.00     0.42   0.05   0.00
    13   1    -0.00   0.00  -0.15     0.12  -0.32  -0.00    -0.29  -0.13   0.00
    14   7     0.00   0.00  -0.03    -0.04  -0.11  -0.00     0.24  -0.03  -0.00
    15   7    -0.00   0.00  -0.10     0.21  -0.27  -0.00     0.14   0.12   0.00
                     16                     17                     18
                      A                      A                      A
 Frequencies --    740.7322               806.5839               923.9224
 Red. masses --      2.0303                 1.8876                 1.3282
 Frc consts  --      0.6563                 0.7236                 0.6680
 IR Inten    --     11.6965                63.4930                 2.4572
  Atom  AN      X      Y      Z        X      Y      Z        X      Y      Z
     1   6    -0.00  -0.00   0.05    -0.00  -0.00  -0.07     0.00  -0.00  -0.02
     2   6     0.00  -0.00  -0.03    -0.00  -0.00   0.01    -0.00   0.00  -0.00
     3   6     0.00   0.00  -0.02     0.00   0.00   0.01    -0.00  -0.00   0.00
     4   7     0.00  -0.00   0.01     0.00  -0.00  -0.01    -0.00   0.00   0.00
     5   7     0.00   0.00   0.01     0.00   0.00  -0.00    -0.00  -0.00  -0.00
     6   6    -0.00   0.00   0.05     0.00   0.00  -0.10    -0.00  -0.00  -0.14
     7   6    -0.00  -0.00  -0.13    -0.00  -0.00   0.01    -0.00  -0.00   0.06
     8   6     0.00   0.00  -0.13    -0.00   0.00  -0.02     0.00   0.00  -0.02
     9   1     0.00   0.00   0.64    -0.00   0.00   0.16    -0.00  -0.00   0.75
    10   6     0.00  -0.00   0.05     0.00   0.00  -0.12     0.00  -0.00   0.06
    11   1    -0.00  -0.00   0.05    -0.00  -0.00   0.42     0.00   0.00  -0.39
    12   1    -0.00  -0.00   0.28    -0.00  -0.00   0.58     0.00   0.00   0.21
    13   1    -0.00  -0.00   0.65    -0.00  -0.00   0.63     0.00   0.00  -0.47
    14   7    -0.00   0.00  -0.14     0.00  -0.00   0.19     0.00  -0.00   0.04
    15   7    -0.00  -0.00   0.15    -0.00  -0.00  -0.07    -0.00   0.00  -0.01
                     19                     20                     21
                      A                      A                      A
 Frequencies --   1002.0626              1016.0408              1047.1453
 Red. masses --      6.8632                 1.3788                 1.3601
 Frc consts  --      4.0604                 0.8386                 0.8787
 IR Inten    --     97.3318                 0.9536                 0.0073
  Atom  AN      X      Y      Z        X      Y      Z        X      Y      Z
     1   6     0.09  -0.01   0.00     0.00  -0.00  -0.01     0.00  -0.00   0.00
     2   6    -0.02   0.02  -0.00    -0.00   0.00   0.00    -0.00   0.00  -0.00
     3   6    -0.01  -0.01  -0.00    -0.00  -0.00  -0.00    -0.00  -0.00   0.00
     4   7    -0.01   0.03  -0.00    -0.00   0.00  -0.00    -0.00   0.00   0.00
     5   7    -0.01  -0.01   0.00    -0.00  -0.00   0.00    -0.00  -0.00  -0.00
     6   6    -0.14  -0.37   0.00    -0.00  -0.00  -0.07     0.00   0.00   0.05
     7   6    -0.02  -0.11   0.00     0.00  -0.00  -0.14    -0.00  -0.00  -0.06
     8   6    -0.04   0.13  -0.00    -0.00   0.00   0.08    -0.00   0.00  -0.12
     9   1     0.01  -0.49  -0.00    -0.00  -0.00   0.32     0.00  -0.00  -0.32
    10   6     0.30  -0.02  -0.00     0.00   0.00   0.06    -0.00  -0.00   0.11
    11   1     0.22  -0.21  -0.00    -0.00  -0.00   0.77     0.00  -0.00   0.36
    12   1     0.12   0.22   0.00     0.00   0.00  -0.46    -0.00   0.00   0.68
    13   1     0.32  -0.09   0.00     0.00   0.00  -0.23     0.00   0.00  -0.52
    14   7    -0.02  -0.08  -0.00     0.00   0.00   0.03     0.00   0.00   0.01
    15   7    -0.15   0.42   0.00    -0.00   0.00   0.01    -0.00   0.00  -0.01
                     22                     23                     24
                      A                      A                      A
 Frequencies --   1050.8698              1095.7524              1107.3387
 Red. masses --      7.1314                 1.7293                 1.4356
 Frc consts  --      4.6400                 1.2233                 1.0372
 IR Inten    --      0.0264                 8.7704                15.0640
  Atom  AN      X      Y      Z        X      Y      Z        X      Y      Z
     1   6     0.38  -0.02  -0.00    -0.08   0.01   0.00    -0.04   0.03   0.00
     2   6    -0.10   0.04   0.00     0.02  -0.01  -0.00     0.01  -0.01  -0.00
     3   6    -0.11  -0.02   0.00     0.02   0.00  -0.00     0.01  -0.01   0.00
     4   7    -0.06   0.13  -0.00     0.01  -0.03   0.00     0.01  -0.03   0.00
     5   7    -0.05  -0.12  -0.00     0.01   0.02   0.00    -0.00  -0.00  -0.00
     6   6     0.03   0.07  -0.00     0.04   0.01  -0.00    -0.07  -0.07  -0.00
     7   6    -0.14  -0.32   0.00     0.03  -0.10  -0.00     0.03  -0.06   0.00
     8   6    -0.17   0.24   0.00     0.02   0.11   0.00     0.02  -0.05  -0.00
     9   1    -0.08   0.16   0.00     0.26  -0.13   0.00    -0.26   0.04  -0.00
    10   6    -0.10   0.04  -0.00    -0.15  -0.03  -0.00    -0.00   0.08   0.00
    11   1     0.01  -0.41  -0.00     0.41  -0.27   0.00     0.19  -0.14  -0.00
    12   1    -0.24   0.23  -0.00     0.58   0.45  -0.00     0.12  -0.01   0.00
    13   1    -0.15   0.37   0.00    -0.15  -0.21   0.00    -0.07   0.90   0.00
    14   7     0.31   0.03  -0.00    -0.06  -0.00   0.00    -0.03   0.06   0.00
    15   7     0.01  -0.08   0.00     0.05   0.03   0.00     0.05  -0.02  -0.00
                     25                     26                     27
                      A                      A                      A
 Frequencies --   1155.3938              1273.1013              1313.6031
 Red. masses --      1.1975                 3.4514                 2.0641
 Frc consts  --      0.9419                 3.2958                 2.0985
 IR Inten    --     28.1359               194.6391                 0.4316
  Atom  AN      X      Y      Z        X      Y      Z        X      Y      Z
     1   6     0.01   0.02  -0.00     0.04   0.14  -0.00    -0.02  -0.13   0.00
     2   6     0.00  -0.00   0.00     0.01  -0.02  -0.00     0.00   0.02   0.00
     3   6    -0.00  -0.01   0.00    -0.02  -0.02   0.00     0.00   0.02  -0.00
     4   7     0.00  -0.00  -0.00     0.03  -0.05   0.00    -0.02   0.03  -0.00
     5   7    -0.01  -0.01  -0.00    -0.03  -0.05  -0.00     0.03   0.04   0.00
     6   6    -0.07  -0.00   0.00     0.12  -0.15  -0.00     0.09  -0.04  -0.00
     7   6    -0.04  -0.02  -0.00     0.06  -0.07   0.00     0.09   0.01   0.00
     8   6     0.04  -0.02  -0.00    -0.08  -0.08  -0.00    -0.04  -0.02  -0.00
     9   1    -0.53   0.29  -0.00     0.56  -0.43   0.00    -0.40   0.27   0.00
    10   6     0.05  -0.00   0.00    -0.00   0.11   0.00     0.02   0.12   0.00
    11   1    -0.31   0.09  -0.00    -0.44   0.13  -0.00     0.72  -0.26   0.00
    12   1     0.58   0.29   0.00     0.06  -0.00   0.00    -0.10  -0.06   0.00
    13   1     0.08  -0.29   0.00     0.03  -0.28  -0.00     0.06  -0.28  -0.00
    14   7     0.03   0.05  -0.00    -0.05   0.30   0.00     0.01   0.05   0.00
    15   7    -0.01  -0.03  -0.00    -0.08  -0.08  -0.00    -0.16  -0.07  -0.00
                     28                     29                     30
                      A                      A                      A
 Frequencies --   1356.5729              1370.7429              1460.0319
 Red. masses --      3.9757                 4.4752                 2.6908
 Frc consts  --      4.3108                 4.9543                 3.3795
 IR Inten    --    293.1379               209.7998               593.3238
  Atom  AN      X      Y      Z        X      Y      Z        X      Y      Z
     1   6    -0.24   0.32   0.00     0.32   0.29  -0.00    -0.07   0.06   0.00
     2   6     0.02  -0.05  -0.00    -0.03  -0.03  -0.00     0.00  -0.01   0.00
     3   6     0.03  -0.03   0.00    -0.03  -0.04   0.00     0.00   0.00   0.00
     4   7     0.06  -0.11   0.00     0.03  -0.03   0.00     0.01  -0.02   0.00
     5   7    -0.04  -0.05  -0.00    -0.07  -0.12  -0.00    -0.01  -0.01  -0.00
     6   6     0.04  -0.08  -0.00    -0.06   0.07   0.00    -0.05   0.10   0.00
     7   6    -0.12  -0.02  -0.00    -0.01   0.11  -0.00     0.00   0.12  -0.00
     8   6     0.06   0.10   0.00     0.10  -0.04  -0.00    -0.14  -0.05  -0.00
     9   1    -0.35   0.16  -0.00    -0.05   0.06   0.00     0.46  -0.21   0.00
    10   6    -0.00   0.03   0.00     0.01   0.01   0.00     0.12  -0.13   0.00
    11   1     0.28  -0.20   0.00     0.79  -0.20   0.00     0.35  -0.01   0.00
    12   1    -0.54  -0.23  -0.00     0.09  -0.06   0.00     0.47   0.30   0.00
    13   1     0.02  -0.34  -0.00     0.03  -0.15  -0.00     0.10   0.40   0.00
    14   7     0.20  -0.02  -0.00    -0.22  -0.08   0.00     0.17  -0.00  -0.00
    15   7     0.00   0.00   0.00    -0.05  -0.06  -0.00    -0.15  -0.07  -0.00
                     31                     32                     33
                      A                      A                      A
 Frequencies --   1512.6515              1628.0592              1690.8751
 Red. masses --      3.1377                 6.6607                 6.9038
 Frc consts  --      4.2300                10.4019                11.6296
 IR Inten    --     93.2601                36.2107               305.1633
  Atom  AN      X      Y      Z        X      Y      Z        X      Y      Z
     1   6     0.00   0.12   0.00    -0.05   0.07   0.00     0.01   0.01  -0.00
     2   6    -0.01  -0.01  -0.00    -0.01  -0.01  -0.00     0.00  -0.01   0.00
     3   6     0.01  -0.01   0.00     0.01  -0.01  -0.00     0.00   0.01   0.00
     4   7     0.02  -0.03   0.00     0.01  -0.01   0.00    -0.00   0.01  -0.00
     5   7    -0.01  -0.02  -0.00    -0.00  -0.01  -0.00    -0.01  -0.01  -0.00
     6   6     0.22   0.00   0.00    -0.09   0.21   0.00    -0.33   0.07  -0.00
     7   6     0.23  -0.04   0.00     0.06  -0.19   0.00     0.38  -0.11   0.00
     8   6    -0.14   0.04  -0.00    -0.16  -0.29  -0.00     0.34   0.11   0.00
     9   1    -0.42   0.44   0.00     0.35  -0.05   0.00     0.21  -0.32  -0.00
    10   6    -0.04  -0.08  -0.00     0.02   0.45   0.00    -0.17   0.00  -0.00
    11   1    -0.44   0.25  -0.00    -0.14  -0.14  -0.00    -0.35   0.19  -0.00
    12   1     0.04   0.18   0.00     0.35  -0.05   0.00    -0.26  -0.26  -0.00
    13   1    -0.09   0.39   0.00     0.11  -0.45  -0.00    -0.21  -0.05  -0.00
    14   7    -0.06  -0.14  -0.00     0.08  -0.25  -0.00     0.13  -0.01  -0.00
    15   7    -0.11   0.07   0.00     0.04   0.12   0.00    -0.27  -0.03  -0.00
                     34                     35                     36
                      A                      A                      A
 Frequencies --   2328.9798              2358.8192              3264.1702
 Red. masses --     12.6469                12.6629                 1.0936
 Frc consts  --     40.4173                41.5120                 6.8650
 IR Inten    --    425.7427               491.6062                 6.2150
  Atom  AN      X      Y      Z        X      Y      Z        X      Y      Z
     1   6    -0.02  -0.16   0.00     0.08  -0.04   0.00    -0.00  -0.00   0.00
     2   6    -0.21   0.37  -0.00    -0.34   0.60  -0.00     0.00  -0.00   0.00
     3   6     0.35   0.58   0.00    -0.22  -0.37  -0.00     0.00   0.00  -0.00
     4   7     0.15  -0.26   0.00     0.24  -0.42   0.00    -0.00   0.00   0.00
     5   7    -0.25  -0.41  -0.00     0.16   0.26   0.00    -0.00  -0.00  -0.00
     6   6     0.00  -0.00  -0.00    -0.02   0.01   0.00    -0.00  -0.00  -0.00
     7   6    -0.00  -0.00   0.00    -0.00   0.00  -0.00    -0.03  -0.08  -0.00
     8   6    -0.00  -0.00  -0.00     0.01   0.00  -0.00    -0.01   0.01   0.00
     9   1     0.01  -0.01  -0.00     0.01   0.01   0.00     0.02   0.03   0.00
    10   6     0.00   0.00   0.00    -0.00  -0.01  -0.00     0.02   0.01   0.00
    11   1    -0.00  -0.00   0.00     0.01   0.01   0.00     0.37   0.88   0.00
    12   1     0.00   0.00  -0.00     0.00  -0.01  -0.00     0.06  -0.11  -0.00
    13   1     0.00  -0.00  -0.00    -0.01  -0.00   0.00    -0.24  -0.02  -0.00
    14   7    -0.01  -0.00   0.00     0.03  -0.00  -0.00     0.00   0.00  -0.00
    15   7     0.01   0.00  -0.00    -0.01  -0.01   0.00     0.00   0.00   0.00
                     37                     38                     39
                      A                      A                      A
 Frequencies --   3275.1601              3290.0735              3295.0032
 Red. masses --      1.0928                 1.0989                 1.0994
 Frc consts  --      6.9067                 7.0083                 7.0325
 IR Inten    --      0.1650                 6.7210                14.7319
  Atom  AN      X      Y      Z        X      Y      Z        X      Y      Z
     1   6     0.00   0.00  -0.00     0.00  -0.00  -0.00    -0.00  -0.00   0.00
     2   6    -0.00   0.00  -0.00     0.00   0.00   0.00     0.00  -0.00   0.00
     3   6    -0.00  -0.00   0.00    -0.00   0.00  -0.00     0.00   0.00  -0.00
     4   7     0.00  -0.00  -0.00    -0.00  -0.00   0.00    -0.00   0.00   0.00
     5   7     0.00   0.00   0.00    -0.00  -0.00  -0.00    -0.00  -0.00  -0.00
     6   6     0.01   0.02   0.00    -0.01  -0.02  -0.00    -0.05  -0.07  -0.00
     7   6    -0.01  -0.02  -0.00    -0.00  -0.02  -0.00     0.00   0.01   0.00
     8   6     0.04  -0.07  -0.00    -0.01   0.02   0.00     0.02  -0.02  -0.00
     9   1    -0.12  -0.20  -0.00     0.17   0.27   0.00     0.49   0.77   0.00
    10   6    -0.02   0.00  -0.00    -0.08  -0.01  -0.00     0.02   0.00   0.00
    11   1     0.08   0.18   0.00     0.07   0.16   0.00    -0.02  -0.05  -0.00
    12   1    -0.45   0.78   0.00     0.12  -0.21  -0.00    -0.16   0.27   0.00
    13   1     0.29   0.02   0.00     0.89   0.07   0.00    -0.23  -0.02  -0.00
    14   7    -0.00   0.00  -0.00     0.00   0.00   0.00    -0.00   0.00   0.00
    15   7     0.00  -0.00  -0.00     0.00   0.00  -0.00    -0.00   0.00   0.00

 -------------------
 - Thermochemistry -
 -------------------
 Temperature   298.150 Kelvin.  Pressure   1.00000 Atm.
 Atom     1 has atomic number  6 and mass  12.00000
 Atom     2 has atomic number  6 and mass  12.00000
 Atom     3 has atomic number  6 and mass  12.00000
 Atom     4 has atomic number  7 and mass  14.00307
 Atom     5 has atomic number  7 and mass  14.00307
 Atom     6 has atomic number  6 and mass  12.00000
 Atom     7 has atomic number  6 and mass  12.00000
 Atom     8 has atomic number  6 and mass  12.00000
 Atom     9 has atomic number  1 and mass   1.00783
 Atom    10 has atomic number  6 and mass  12.00000
 Atom    11 has atomic number  1 and mass   1.00783
 Atom    12 has atomic number  1 and mass   1.00783
 Atom    13 has atomic number  1 and mass   1.00783
 Atom    14 has atomic number  7 and mass  14.00307
 Atom    15 has atomic number  7 and mass  14.00307
 Molecular mass:   144.04360 amu.
 Principal axes and moments of inertia in atomic units:
                           1         2         3
     Eigenvalues --   927.523571941.742492869.26599
           X            1.00000  -0.00198   0.00000
           Y            0.00198   1.00000   0.00001
           Z           -0.00000  -0.00001   1.00000
 This molecule is an asymmetric top.
 Rotational symmetry number  1.
 Warning -- assumption of classical behavior for rotation
           may cause significant error
 Rotational temperatures (Kelvin)      0.09338     0.04461     0.03019
 Rotational constants (GHZ):           1.94576     0.92944     0.62899
 Zero-point vibrational energy     271798.3 (Joules/Mol)
                                   64.96136 (Kcal/Mol)
 Warning -- explicit consideration of  12 degrees of freedom as
           vibrations may cause significant error
 Vibrational temperatures:     81.29   151.63   192.77   205.78   336.91
          (Kelvin)            517.98   593.03   646.52   720.84   731.71
                              781.00   889.92   925.54   927.35  1041.85
                             1065.75  1160.49  1329.32  1441.74  1461.86
                             1506.61  1511.97  1576.54  1593.21  1662.35
                             1831.71  1889.98  1951.81  1972.19  2100.66
                             2176.37  2342.41  2432.79  3350.88  3393.81
                             4696.41  4712.22  4733.68  4740.77
 
 Zero-point correction=                           0.103523 (Hartree/Particle)
 Thermal correction to Energy=                    0.112294
 Thermal correction to Enthalpy=                  0.113238
 Thermal correction to Gibbs Free Energy=         0.068747
 Sum of electronic and zero-point Energies=           -486.976463
 Sum of electronic and thermal Energies=              -486.967692
 Sum of electronic and thermal Enthalpies=            -486.966747
 Sum of electronic and thermal Free Energies=         -487.011238
 
                     E (Thermal)             CV                S
                      KCal/Mol        Cal/Mol-Kelvin    Cal/Mol-Kelvin
 Total                   70.466             31.987             93.639
 Electronic               0.000              0.000              0.000
 Translational            0.889              2.981             40.806
 Rotational               0.889              2.981             30.025
 Vibrational             68.688             26.025             22.808
 Vibration     1          0.596              1.975              4.576
 Vibration     2          0.605              1.945              3.352
 Vibration     3          0.613              1.919              2.888
 Vibration     4          0.616              1.910              2.763
 Vibration     5          0.654              1.789              1.847
 Vibration     6          0.735              1.555              1.122
 Vibration     7          0.776              1.444              0.919
 Vibration     8          0.808              1.362              0.798
 Vibration     9          0.856              1.248              0.656
 Vibration    10          0.864              1.231              0.637
 Vibration    11          0.898              1.155              0.559
 Vibration    12          0.978              0.993              0.419
                       Q            Log10(Q)             Ln(Q)
 Total Bot       0.239069D-31        -31.621477        -72.811142
[...]
   Y14        0.06191   0.00001   0.00000  -0.00022  -0.00023   0.06168
   Z14        0.00026  -0.00003   0.00000  -0.00027  -0.00027  -0.00001
   X15        1.46837   0.00003   0.00000   0.00011   0.00009   1.46846
   Y15       -2.17798   0.00000   0.00000  -0.00016  -0.00019  -2.17817
   Z15       -0.00002   0.00001   0.00000  -0.00005  -0.00018  -0.00021
         Item               Value     Threshold  Converged?
 Maximum Force            0.000060     0.000450     YES
 RMS     Force            0.000024     0.000300     YES
 Maximum Displacement     0.001064     0.001800     YES
 RMS     Displacement     0.000418     0.001200     YES
 Predicted change in Energy=-5.947525D-08
 Optimization completed.
    -- Stationary point found.
 GradGradGradGradGradGradGradGradGradGradGradGradGradGradGradGradGradGrad

 Leave Link  103 at Tue Jan 28 16:01:30 2025, MaxMem= 82678120448 cpu:               0.8 elap:               0.0
 (Enter /sysapps/ubuntu-applications/gaussian-new/avx/g16/l9999.exe)

 ----------------------------------------------------------------------

 Electric dipole moment (input orientation):
 (Debye = 10**-18 statcoulomb cm , SI units = C m)
                  (au)            (Debye)         (10**-30 SI)
   Tot        0.514954D+01      0.130888D+02      0.436596D+02
   x          0.503531D+01      0.127985D+02      0.426912D+02
   y          0.107860D+01      0.274153D+01      0.914474D+01
   z         -0.358219D-03     -0.910502D-03     -0.303711D-02

 Dipole polarizability, Alpha (input orientation).
 (esu units = cm**3 , SI units = C**2 m**2 J**-1)
 Alpha(0;0):
               (au)            (10**-24 esu)      (10**-40 SI)
   iso        0.149276D+03      0.221204D+02      0.246123D+02
   aniso      0.168741D+03      0.250048D+02      0.278216D+02
   xx         0.245870D+03      0.364341D+02      0.405385D+02
   yx         0.144407D+01      0.213989D+00      0.238095D+00
   yy         0.150892D+03      0.223600D+02      0.248788D+02
   zx        -0.505088D-02     -0.748463D-03     -0.832778D-03
   zy         0.389782D-02      0.577598D-03      0.642664D-03
   zz         0.510662D+02      0.756723D+01      0.841968D+01

 ----------------------------------------------------------------------

 Dipole orientation:
     6         -0.09971695          0.46824205         -2.25675579
     6          0.33236388         -1.54817064         -3.94577173
     6         -0.62570205          2.92532946         -3.12774622
     7          0.67494359         -3.15276680         -5.41721488
     7         -1.06395120          4.96868129         -3.83424531
     6         -0.39197681          1.82560308          2.09041563
     6          0.63555113         -2.96725112          3.40655755
     6         -0.26715969          1.24396610          4.63998174
     1         -0.79630661          3.71250526          1.37142706
     6          0.26248199         -1.22505224          5.35770402
     1          1.06082445         -4.95038935          3.79178835
     1         -0.58914041          2.74367846          6.01633806
     1          0.38631191         -1.79994939          7.33080306
     7          0.00188295         -0.01014953          0.34376271
     7          0.51044803         -2.38317399          0.97960512

 Electric dipole moment (dipole orientation):
 (Debye = 10**-18 statcoulomb cm , SI units = C m)
                  (au)            (Debye)         (10**-30 SI)
   Tot        0.514954D+01      0.130888D+02      0.436596D+02
   x          0.000000D+00      0.000000D+00      0.000000D+00
   y          0.000000D+00      0.000000D+00      0.000000D+00
   z          0.514954D+01      0.130888D+02      0.436596D+02

 Dipole polarizability, Alpha (dipole orientation).
 (esu units = cm**3 , SI units = C**2 m**2 J**-1)
 Alpha(0;0):
               (au)            (10**-24 esu)      (10**-40 SI)
   iso        0.149276D+03      0.221204D+02      0.246123D+02
   aniso      0.168741D+03      0.250048D+02      0.278216D+02
   xx         0.556040D+02      0.823967D+01      0.916787D+01
   yx        -0.211809D+02     -0.313869D+01     -0.349226D+01
   yy         0.149930D+03      0.222173D+02      0.247201D+02
   zx         0.378948D+01      0.561542D+00      0.624800D+00
   zy        -0.177345D+02     -0.262799D+01     -0.292403D+01
   zz         0.242295D+03      0.359043D+02      0.399490D+02

 ----------------------------------------------------------------------
 1\1\GINC-ACIDSMN002\Freq\RMN15\Gen\C7H4N4\SELHAJJ1\28-Jan-2025\0\\#P M
 N15/gen scf=(maxcyc=500) freq scrf=(smd,solvent=DiChloroEthane)\\Opt\\
 0,1\C,-1.220797,-0.002417,-0.000219\C,-1.866189,-1.256682,-0.000235\C,
 -1.949993,1.201241,-0.000363\N,-2.445711,-2.268768,0.000407\N,-2.54719
 7,2.204288,-0.000053\C,0.874703,1.197867,0.000399\C,2.099033,-1.192616
 ,-0.000097\C,2.259884,1.172645,0.000188\H,0.28878,2.116696,0.000499\C,
 2.911151,-0.054434,-0.000232\H,2.523173,-2.1994,-0.000355\H,2.80205,2.
 118892,0.000516\H,3.997292,-0.140034,-0.000658\N,0.17902,0.032763,0.00
 0138\N,0.777026,-1.152538,-0.000013\\Version=ES64L-G16RevA.03\State=1-
 A\HF=-487.0799856\RMSD=6.956e-09\RMSF=2.369e-05\ZeroPoint=0.1035225\Th
 ermal=0.112294\Dipole=5.0353117,1.0785991,-0.0003582\DipoleDeriv=-2.37
 71942,-0.0601626,-0.0000074,-0.0306098,-0.593844,0.0000526,-0.0006627,
 0.000042,-0.2729538,0.6302849,0.6726651,-0.0000004,1.2383818,1.1150442
 ,0.0001271,0.0001583,0.0000317,0.2575685,0.7423751,-0.6760856,0.000087
 6,-1.4053251,1.0394745,-0.0002273,-0.0000206,-0.0001651,0.2674531,-0.8
 026152,-0.3393181,-0.0000791,-0.69673,-0.9369615,-0.0001567,0.0000748,
 0.0001372,-0.4309233,-0.8491955,0.3008888,-0.000111,0.7542452,-0.90052
 69,0.0001811,0.0000376,-0.0000612,-0.4275046,-1.0951628,-0.1949311,-0.
 0001311,-1.2060914,-0.0323231,-0.0000535,-0.0005051,-0.0000294,0.03470
 1,0.0592271,0.0529032,0.0000232,-0.5596666,0.483245,-0.0000028,0.00012
 28,0.0000424,0.0899015,0.8720149,0.1265225,0.0000411,-0.1327297,0.1580
 97,0.0000342,0.0001741,0.0001778,-0.0415682,0.094938,0.0213643,0.00003
 23,0.0248018,0.1686993,-0.0000053,-0.000072,-0.0000492,0.1791502,-0.32
 5364,-0.0677931,-0.0001422,0.6784445,-0.3427378,-0.0000195,-0.0000064,
 -0.0000224,-0.0593079,0.1057946,0.0158466,-0.0000011,0.0621082,0.05017
 12,0.0000036,0.0000918,-0.0000723,0.1231491,0.1429568,-0.0235365,0.000
 0079,-0.0448777,0.0814881,0.0000039,-0.000043,-0.0000548,0.142707,0.07
 64851,0.0149846,0.0000191,0.0133472,0.1350284,-0.0000118,-0.0000633,-0
 .0000056,0.1538554,3.5475419,0.1209675,0.0003051,0.5860355,-0.107311,-
 0.0000274,0.0012245,0.0000021,0.2100594,-0.8220867,0.0356842,-0.000044
 ,0.7186661,-0.3175435,0.0001018,-0.0005109,0.0000267,-0.2262873\Polar=
 245.8697962,1.4440685,150.8924856,-0.0050509,0.0038978,51.0661764\Quad
 rupole=2.621488,-5.3220662,2.7005781,0.0467396,0.0012381,0.0032688\PG=
 C01 [X(C7H4N4)]\NImag=0\\0.58807636,-0.00945595,0.73679062,0.00006035,
 -0.00002910,0.09385637,-0.12546090,-0.09948153,-0.00000406,0.48276117,
 -0.10310035,-0.27912060,0.00000331,0.63892227,1.23913785,0.00002026,0.
 00003382,-0.05306611,-0.00031378,-0.00055221,0.09850121,-0.14042910,0.
 10667388,-0.00000941,0.01665311,0.00363010,-0.00000719,0.51930018,0.11
 092062,-0.26579118,0.00002119,0.00178889,-0.05416923,-0.00000034,-0.64
 912654,1.19128093,-0.00000107,0.00000664,-0.05083504,-0.00000466,0.000
 00723,0.00268914,-0.00014133,0.00023329,0.09397544,0.00208756,-0.02743
 351,0.00001133,-0.32404909,-0.50278075,0.00030800,-0.00523466,0.003820
 77,0.00000221,0.31913424,-0.03272888,-0.03516432,0.00002428,-0.5039307
 3,-0.91221423,0.00052594,-0.00710936,0.01210380,-0.00000505,0.52583809
 ,0.93993803,-0.00000425,-0.00000285,0.02118274,0.00032342,0.00055361,-
 0.05001255,0.00000468,-0.00000125,-0.00005430,-0.00031994,-0.00055091,
 0.02721608,-0.00152276,0.03123897,0.00000216,-0.00525588,-0.00445127,0
 .00000375,-0.33966578,0.50680817,0.00015089,0.00182333,0.00286254,-0.0
 0000212,0.33585579,0.03681669,-0.03504375,-0.00001103,0.00633336,0.012
 68540,0.00000277,0.50772061,-0.88218594,-0.00024205,-0.00282468,-0.005
 03042,0.00000050,-0.53357638,0.91078478,-0.00000655,0.00000451,0.02008
 660,0.00000264,0.00000003,0.00042412,0.00016107,-0.00026023,-0.0486824
 1,-0.00000133,0.00000007,0.00010710,-0.00015674,0.00025535,0.02658094,
 -0.05118137,-0.04029015,-0.00002379,0.00071621,0.00892709,0.00000498,0
 .00415276,-0.01299256,-0.00000837,-0.00293473,-0.00577039,-0.00000074,
 -0.00206196,0.00441888,0.00000036,0.78752056,-0.04223925,0.00118683,-0
 .00001390,0.00865742,0.00831109,0.00000575,0.00833000,-0.00590172,0.00
 000167,-0.00316003,-0.00409017,-0.00000120,-0.00373894,0.00391133,-0.0
 0000056,-0.07855771,0.72337888,-0.00002809,-0.00000688,0.01004817,0.00
 000155,0.00000565,0.00296163,-0.00000135,-0.00000413,0.00274984,-0.000
 00104,-0.00000265,-0.00048475,-0.00000133,0.00000302,-0.00037831,-0.00
 002687,0.00010814,0.13649922,-0.00483304,-0.00801121,-0.00000501,0.000
 51984,0.00353005,0.00000242,0.00131196,-0.00498666,-0.00000215,-0.0014
 9654,-0.00248285,-0.00000013,-0.00040107,0.00193133,0.00000082,-0.0602
 8912,-0.04360463,-0.00000105,0.74109273,-0.01502887,-0.00766301,-0.000
 00812,0.00248699,0.00367985,0.00000193,0.00436802,-0.00581038,-0.00000
 123,-0.00218074,-0.00231993,0.00000003,-0.00173525,0.00309359,0.000000
 69,-0.02184871,-0.01842763,0.00000332,-0.03972405,0.78503938,0.0000001
 4,-0.00000003,0.00588747,-0.00000057,-0.00000189,-0.00104442,-0.000000
 55,0.00000014,0.00322723,0.00000033,0.00000101,-0.00009016,0.00000027,
 -0.00000003,-0.00079300,-0.00000152,0.00000062,-0.00793063,-0.00010443
 ,0.00006506,0.15947262,0.02130290,0.00642829,0.00000990,-0.00324218,-0
 .00524544,-0.00000438,-0.00398470,0.00707578,0.00000106,0.00233311,0.0
 0350838,0.00000055,0.00132317,-0.00358136,-0.00000056,-0.38226153,0.04
 979290,0.00003852,0.08372573,0.01795091,0.00000208,0.72376283,-0.00053
 598,-0.00883407,-0.00000344,-0.00153091,-0.00014227,0.00000063,0.00130
 280,-0.00220389,-0.00000057,-0.00032940,-0.00058304,-0.00000029,0.0001
 6444,0.00127812,0.00000030,-0.02568917,-0.13032419,-0.00000200,-0.0341
 3818,-0.05480787,-0.00001316,0.03439835,0.77691973,0.00000253,-0.00000
 404,0.00428331,-0.00000218,-0.00000119,0.00230463,-0.00000028,0.000001
 24,-0.00068848,0.00000053,0.00000016,-0.00052396,0.00000030,-0.0000006
 1,-0.00006669,0.00004509,-0.00001734,-0.06189126,-0.00001482,-0.000010
 58,0.00810886,-0.00006592,0.00018955,0.14248678,-0.00120084,-0.0007728
 5,-0.00000053,0.00006399,0.00049219,0.00000065,-0.00251986,-0.00342461
 ,0.00000608,0.00000396,-0.00008273,-0.00000032,-0.00181966,0.00173775,
 0.00000232,-0.14812213,0.14655250,0.00001990,-0.00071327,-0.00049008,-
 0.00000032,-0.00739012,0.02286918,0.00000256,0.15262273,0.00230964,0.0
 0028147,0.00000095,-0.00025267,-0.00042728,0.00000042,-0.00063157,-0.0
 0024083,-0.00000341,0.00020287,0.00036319,-0.00000031,0.00092667,0.000
 30352,0.,0.13832605,-0.27436529,-0.00002903,-0.00076378,0.00050911,-0.
 00000007,-0.00361165,0.00758145,0.00000099,-0.14482637,0.28884426,-0.0
 0000009,-0.00000008,-0.00221677,0.00000082,0.00000058,-0.00106538,0.00
 000426,-0.00000348,0.00005969,-0.00000032,-0.00000023,0.00023123,0.000
 00102,-0.00000063,0.00016403,0.00000810,-0.00002599,-0.03922306,-0.000
 00337,0.00000006,-0.00061966,0.00001044,-0.00000595,0.00633949,-0.0000
 2714,0.00003495,0.02522987,-0.01178145,0.00122002,-0.00000356,0.001895
 41,0.00327484,0.00000135,0.00198988,-0.00336008,0.00000068,-0.00106097
 ,-0.00172756,-0.00000013,-0.00123887,0.00200308,-0.00000012,-0.0215122
 6,0.03299441,0.00001131,-0.20021159,-0.13905449,0.00002501,-0.18544934
 ,0.14251088,0.00006085,-0.00460358,-0.00154150,0.00000111,0.79636260,0
 .01544174,0.00783619,0.00000829,-0.00206200,-0.00494462,-0.00000364,-0
 .00332271,0.00708696,0.00000197,0.00223865,0.00340604,0.00000037,0.001
 25836,-0.00346020,-0.00000084,0.08427322,0.04320193,-0.00001046,-0.053
 79701,-0.28085075,0.00002364,0.06504507,-0.32835079,-0.00008650,-0.001
 08721,0.00096850,0.00000250,-0.02277135,0.68411399,0.00000352,0.000000
 78,-0.00081777,-0.00000068,-0.00000102,0.00028363,-0.00000038,0.000000
 94,-0.00021006,0.00000031,0.00000056,-0.00010638,0.00000029,-0.0000004
 3,0.00001312,0.00001306,-0.00000507,0.00870983,0.00003915,0.00002840,-
 0.07290109,0.00005836,-0.00009202,-0.06463740,0.00000092,0.00000031,0.
 00706176,-0.00022398,0.00008954,0.13157295,0.00087100,0.00088303,0.000
 00039,0.00001069,-0.00007092,-0.00000007,-0.00033880,-0.00002587,-0.00
 000014,-0.00003420,-0.00004822,0.00000004,0.00002567,0.00007302,0.0000
 0004,-0.00077708,-0.00027305,0.00000010,-0.09320756,0.09987976,0.00003
 006,-0.00223054,-0.00348887,0.00000131,0.00017496,0.00017023,-0.000000
 29,0.01110022,-0.01711349,-0.00000227,0.10836763,0.00053119,0.00008479
 ,0.00000001,-0.00001564,-0.00015914,0.00000003,-0.00015585,0.00018610,
 -0.00000008,0.00004360,0.00005835,-0.00000001,0.00008760,-0.00011167,0
 .00000002,-0.00090615,0.00035819,0.00000032,0.10485847,-0.32085168,-0.
 00006012,-0.00294150,-0.00266511,-0.00000047,0.00007881,0.00003953,0.0
 0000015,0.01074174,-0.01274861,-0.00000650,-0.11215190,0.32724396,0.00
 000013,-0.00000039,0.00039782,0.00000002,-0.00000007,-0.00025230,0.000
 00005,0.00000030,0.00012380,0.00000011,0.00000012,0.00006998,0.0000000
 7,-0.00000018,-0.00005010,0.00000346,0.00000163,-0.00031692,0.00003834
 ,-0.00006536,-0.04462968,0.00000019,0.00000280,0.00633537,0.00000006,0
 .00000033,-0.00144344,-0.00000140,-0.00000188,0.00865227,-0.00003518,0
 .00006675,0.02890103,0.00065988,-0.00088990,0.00000017,-0.00037509,-0.
 00005993,-0.00000034,0.00000874,0.00000628,0.00000015,0.00003572,-0.00
 003963,0.00000010,0.00000205,0.00004712,-0.00000003,-0.00806495,-0.025
 11045,-0.00000623,-0.00120044,0.00342313,0.00000152,-0.13319647,-0.132
 60202,-0.00003692,0.00127666,0.00012134,-0.00000005,0.01269253,0.01435
 322,0.00000205,0.00054403,0.00060699,-0.00000058,0.13365928,-0.0004810
 2,0.00022653,-0.00000019,0.00018807,0.00016638,0.00000022,0.00008807,-
 0.00016793,0.00000002,-0.00006554,-0.00007681,-0.00000004,-0.00004779,
 0.00006995,-0.00000003,0.00350757,0.00511536,-0.00000149,0.00290726,-0
 .00325630,-0.00000546,-0.13422098,-0.28850477,-0.00007375,0.00001178,0
 .00034708,0.00000204,-0.01432565,-0.01330168,-0.00000480,-0.00073865,-
 0.00048068,0.00000077,0.14006274,0.29635343,-0.00000079,0.00000050,0.0
 0011053,0.00000047,0.00000010,-0.00036805,0.00000005,-0.00000025,0.000
 04037,-0.00000013,-0.00000002,0.00005818,-0.00000008,0.00000008,0.0000
 0901,0.00000240,0.00000504,0.00363468,0.00000071,-0.00000482,0.0082727
 5,-0.00003995,-0.00008472,-0.04422285,0.00000017,-0.00000009,-0.004080
 54,-0.00000630,0.00000064,0.00718389,-0.00000070,-0.00000014,-0.000755
 57,0.00003999,0.00008195,0.02835630,0.00070087,0.00003145,-0.00000025,
 -0.00005357,-0.00023462,-0.00000006,-0.00012547,0.00020950,-0.00000011
 ,0.00002348,0.00011150,0.00000002,0.00005480,-0.00011004,0.00000005,0.
 00070371,0.00160756,0.00000388,-0.00837138,0.00532576,0.00000297,-0.00
 490366,-0.00242042,0.00000313,-0.00014310,-0.00022818,-0.00000003,-0.3
 6597054,0.02395417,0.00012071,0.00055587,0.00029871,-0.00000146,0.0005
 5903,-0.00033042,-0.00000237,0.37707148,0.00013886,0.00030694,0.000000
 14,0.00009986,-0.00013180,0.00000002,-0.00005373,-0.00001616,-0.000000
 02,-0.00003086,0.00006615,-0.00000002,0.00001525,0.00004405,0.,0.00184
 024,-0.00450034,-0.00000218,-0.02484673,0.00762219,0.00000720,0.027073
 91,0.00313488,-0.00000829,0.00103524,0.00035535,0.00000028,0.02443176,
 -0.05740739,-0.00001045,0.00074103,0.00090015,0.00000041,-0.00087400,0
 .00143388,0.00000121,-0.02573746,0.05369912,-0.00000177,-0.00000015,-0
 .00095799,0.00000035,0.00000101,-0.00004930,0.00000043,-0.00000082,-0.
 00034728,-0.00000023,-0.00000054,0.00007364,-0.00000023,0.00000047,0.0
 0012778,0.00000225,-0.00000411,0.00773970,0.00000103,-0.00000222,0.002
 92417,0.00000381,0.00000259,0.00515410,0.00000058,0.00000044,-0.000149
 25,0.00012493,-0.00001366,-0.03883441,-0.00000091,0.00000051,-0.003243
 24,-0.00000054,0.00000281,-0.00429550,-0.00012922,0.00001282,0.0254706
 3,-0.23874105,-0.01855926,-0.00004043,-0.04466180,-0.04637349,-0.00001
 442,-0.04696731,0.04426390,-0.00000863,0.01185226,0.02118700,-0.000001
 70,0.01398557,-0.02329138,-0.00000008,-0.18151707,-0.08273690,-0.00000
 810,-0.03647312,0.07047030,0.00001046,-0.05024449,-0.03765010,-0.00001
 348,0.01427372,0.01363012,0.00000578,0.01972070,-0.01342793,-0.0000056
 4,-0.00594401,-0.00306454,0.00000007,-0.00648058,0.00276240,0.00000398
 ,0.00013066,0.00037007,0.00000042,0.73272542,-0.00622059,-0.10593800,-
 0.00000199,-0.04220073,-0.00679730,-0.00001114,0.03362220,0.00091422,0
 .00000577,0.00526573,0.00017004,0.00000196,-0.00240393,-0.00318332,-0.
 00000050,-0.02843035,-0.27292635,-0.00005530,0.11461108,0.01494080,0.0
 0000132,-0.10297627,0.04743156,0.00001736,-0.01853465,-0.02336316,0.00
 000173,-0.01343732,-0.09599386,-0.00000674,0.00298055,0.00390684,-0.00
 000509,0.00021875,0.00209861,0.00000092,0.00007222,-0.00111084,-0.0000
 0166,0.01730005,0.70145467,-0.00003031,-0.00001200,-0.05232167,-0.0000
 0496,-0.00001657,-0.00035595,-0.00000990,0.00001824,-0.00292252,0.0000
 0118,0.00000894,0.00181625,0.00000299,-0.00001035,0.00222081,-0.000014
 38,-0.00003740,-0.08024802,0.00002588,0.00001348,0.00025483,-0.0000173
 3,0.00000693,0.00566186,-0.00000389,-0.00000403,0.00201087,0.00000155,
 -0.00002069,-0.01188630,0.00000209,-0.00000211,0.01233688,0.00000065,-
 0.00000328,0.00924704,-0.00000058,0.,-0.00038544,0.00006112,0.00008010
 ,0.18929570,-0.03854807,0.05841873,0.00000274,0.00047809,0.00354023,-0
 .00000118,-0.00415095,-0.00097758,0.00000539,-0.00248348,0.00041283,0.
 00000052,-0.00110439,0.00230200,-0.00000188,0.06562895,0.03148618,-0.0
 0000121,-0.41945311,0.01615730,0.00003455,-0.05954471,0.03713941,0.000
 01729,-0.00190346,-0.00383121,-0.00000023,-0.05193275,-0.09298272,-0.0
 0000541,-0.01911788,0.00198847,-0.00000388,-0.00012039,0.00068215,0.00
 000255,-0.00023218,-0.00420346,-0.00000091,-0.18165891,0.04013325,-0.0
 0001411,0.71414324,0.04363216,-0.00915844,0.00000960,-0.00900266,-0.00
 587411,-0.00000419,-0.00533593,0.00491525,-0.00000417,0.00139579,0.003
 37333,0.00000042,0.00259154,-0.00315545,0.00000120,-0.02680787,-0.0749
 2791,-0.00000633,-0.01548309,-0.12089737,-0.00001824,0.04130363,-0.019
 92975,-0.00000654,-0.00355895,-0.00119691,-0.00000594,-0.02095878,0.05
 044429,0.00000649,0.02918336,0.00423898,-0.00000015,0.00073637,-0.0000
 2303,-0.00000040,-0.00254974,-0.00439617,0.00000251,0.05511976,-0.2616
 0392,-0.00002125,-0.09026559,0.43819122,-0.00001400,0.00000927,0.00436
 234,0.00000163,0.00000144,-0.00095031,-0.00000014,-0.00000484,0.000874
 58,-0.00000099,-0.00000169,0.00051691,-0.00000122,0.00000312,0.0002369
 9,-0.00000403,-0.00001727,0.01812987,0.00002258,-0.00002065,-0.0601392
 8,0.00000323,-0.00000066,-0.00864376,-0.00000104,-0.00000145,0.0077011
 6,0.00000867,0.00001073,0.02591596,0.00000554,0.00000164,-0.00612589,0
 .00000006,0.00000122,-0.00319026,0.00000332,-0.00000109,0.00677241,0.0
 0001066,-0.00002674,-0.07472434,-0.00003425,0.00004698,0.08926361\\0.0
 0000682,-0.00001824,0.00002744,-0.00001633,-0.00001504,-0.00006022,-0.
 00000398,0.00004663,-0.00003880,-0.00001187,-0.00000177,0.00003452,-0.
 00000757,0.00001645,0.00002276,0.00005685,0.00002072,0.00000665,0.0000
 1967,0.00002523,0.00003078,-0.00003217,-0.00003017,-0.00001803,-0.0000
 1414,0.00000934,-0.00000749,-0.00003237,-0.00001427,-0.00000803,-0.000
 00266,-0.00002748,-0.00000776,0.00002612,0.00001225,0.00001463,0.00002
 197,-0.00000893,-0.00000923,0.00001657,-0.00001180,0.00002598,-0.00002
 690,-0.00000292,-0.00001319\\\@


 MODELS ARE TO BE USED, NOT BELIEVED.

    -- PARAPHRASED BY H. THIEL IN "PRINCIPLES OF ECONOMETRICS"
 Job cpu time:       0 days  0 hours 37 minutes  2.3 seconds.
 Elapsed time:       0 days  0 hours  1 minutes 33.7 seconds.
 File lengths (MBytes):  RWF=    392 Int=      0 D2E=      0 Chk=     12 Scr=      8
 Normal termination of Gaussian 16 at Tue Jan 28 16:01:30 2025.
