 Entering Gaussian System, Link 0=/sysapps/ubuntu-applications/gaussian-new/avx/g16//g16
 Input=preplx.in
 Output=preplx.log
 Initial command:
 /sysapps/ubuntu-applications/gaussian-new/avx/g16/l1.exe "/data/temp-scratch/sgozem/303825/Gau-4081662.inp" -scrdir="/data/temp-scratch/sgozem/303825/"
 Entering Link 1 = /sysapps/ubuntu-applications/gaussian-new/avx/g16/l1.exe PID=   4081664.
  
 Copyright (c) 1988,1990,1992,1993,1995,1998,2003,2009,2016,
            Gaussian, Inc.  All Rights Reserved.
  
 This is part of the Gaussian(R) 16 program.  It is based on
 the Gaussian(R) 09 system (copyright 2009, Gaussian, Inc.),
 the Gaussian(R) 03 system (copyright 2003, Gaussian, Inc.),
 the Gaussian(R) 98 system (copyright 1998, Gaussian, Inc.),
 the Gaussian(R) 94 system (copyright 1995, Gaussian, Inc.),
 the Gaussian 92(TM) system (copyright 1992, Gaussian, Inc.),
 the Gaussian 90(TM) system (copyright 1990, Gaussian, Inc.),
 the Gaussian 88(TM) system (copyright 1988, Gaussian, Inc.),
 the Gaussian 86(TM) system (copyright 1986, Carnegie Mellon
 University), and the Gaussian 82(TM) system (copyright 1983,
 Carnegie Mellon University). Gaussian is a federally registered
 trademark of Gaussian, Inc.
  
 This software contains proprietary and confidential information,
 including trade secrets, belonging to Gaussian, Inc.
  
 This software is provided under written license and may be
 used, copied, transmitted, or stored only in accord with that
 written license.
  
 The following legend is applicable only to US Government
 contracts under FAR:
  
                    RESTRICTED RIGHTS LEGEND
  
 Use, reproduction and disclosure by the US Government is
 subject to restrictions as set forth in subparagraphs (a)
 and (c) of the Commercial Computer Software - Restricted
 Rights clause in FAR 52.227-19.
  
 Gaussian, Inc.
 340 Quinnipiac St., Bldg. 40, Wallingford CT 06492
  
  
 ---------------------------------------------------------------
 Warning -- This program may not be used in any manner that
 competes with the business of Gaussian, Inc. or will provide
 assistance to any competitor of Gaussian, Inc.  The licensee
 of this program is prohibited from giving any competitor of
 Gaussian, Inc. access to this program.  By using this program,
 the user acknowledges that Gaussian, Inc. is engaged in the
 business of creating and licensing software in the field of
 computational chemistry and represents and warrants to the
 licensee that it is not a competitor of Gaussian, Inc. and that
 it will not use this program in any manner prohibited above.
 ---------------------------------------------------------------
  

 Cite this work as:
 Gaussian 16, Revision A.03,
 M. J. Frisch, G. W. Trucks, H. B. Schlegel, G. E. Scuseria, 
 M. A. Robb, J. R. Cheeseman, G. Scalmani, V. Barone, 
 G. A. Petersson, H. Nakatsuji, X. Li, M. Caricato, A. V. Marenich, 
 J. Bloino, B. G. Janesko, R. Gomperts, B. Mennucci, H. P. Hratchian, 
 J. V. Ortiz, A. F. Izmaylov, J. L. Sonnenberg, D. Williams-Young, 
 F. Ding, F. Lipparini, F. Egidi, J. Goings, B. Peng, A. Petrone, 
 T. Henderson, D. Ranasinghe, V. G. Zakrzewski, J. Gao, N. Rega, 
 G. Zheng, W. Liang, M. Hada, M. Ehara, K. Toyota, R. Fukuda, 
 J. Hasegawa, M. Ishida, T. Nakajima, Y. Honda, O. Kitao, H. Nakai, 
 T. Vreven, K. Throssell, J. A. Montgomery, Jr., J. E. Peralta, 
 F. Ogliaro, M. J. Bearpark, J. J. Heyd, E. N. Brothers, K. N. Kudin, 
 V. N. Staroverov, T. A. Keith, R. Kobayashi, J. Normand, 
 K. Raghavachari, A. P. Rendell, J. C. Burant, S. S. Iyengar, 
 J. Tomasi, M. Cossi, J. M. Millam, M. Klene, C. Adamo, R. Cammi, 
 J. W. Ochterski, R. L. Martin, K. Morokuma, O. Farkas, 
 J. B. Foresman, and D. J. Fox, Gaussian, Inc., Wallingford CT, 2016.
 
 ******************************************
 Gaussian 16:  ES64L-G16RevA.03 25-Dec-2016
                30-Apr-2025 
 ******************************************
 %chk=preplx.chk
 %mem=92Gb
 %nprocshared=24
 Will use up to   24 processors via shared memory.
 ----------------------------------------------------------------------
 #P UMN15/genecp scf=(maxcyc=500) opt freq scrf=(smd,solvent=DiChloroEt
 hane)
 ----------------------------------------------------------------------
 1/18=20,19=15,26=3,38=1/1,3;
 2/9=110,12=2,17=6,18=5,40=1/2;
 3/5=7,11=2,16=1,17=8,25=1,30=1,70=32201,71=1,72=10,74=-73,116=2/1,2,3;
 4//1;
 5/5=2,7=500,38=5,53=10/2;
 6/7=2,8=2,9=2,10=2,28=1/1;
 7//1,2,3,16;
 1/18=20,19=15,26=3/3(2);
 2/9=110/2;
 99//99;
 2/9=110/2;
 3/5=7,6=1,11=2,16=1,17=8,25=1,30=1,70=32205,71=1,72=10,74=-73,82=7,116=2/1,2,3;
 4/5=5,16=3,69=1/1;
 5/5=2,7=500,38=5,53=10/2;
 7//1,2,3,16;
 1/18=20,19=15,26=3/3(-5);
 2/9=110/2;
 6/7=2,8=2,9=2,10=2,19=2,28=1/1;
 99/9=1/99;
 Leave Link    1 at Wed Apr 30 13:37:18 2025, MaxMem= 12348030976 cpu:             403.4 elap:              17.7
 (Enter /sysapps/ubuntu-applications/gaussian-new/avx/g16/l101.exe)
 ---
 Opt
 ---
 Symbolic Z-matrix:
 Charge =  0 Multiplicity = 1
 C                    -4.65159   1.20129   0.99184 
 C                    -5.96949   0.80494   0.73906 
 C                    -6.88961   0.7256    1.78684 
 C                    -6.49825   1.05414   3.08542 
 C                    -5.1901    1.48448   3.33394 
 C                    -4.27035   1.56584   2.29019 
 C                    -2.32602   0.66413  -0.13433 
 C                    -1.62676   0.33734  -1.43692 
 C                    -1.69725  -0.03526   1.05433 
 H                    -6.27054   0.55466  -0.28135 
 H                    -7.91474   0.40705   1.58592 
 H                    -7.21602   0.98908   3.9063 
 H                    -4.88876   1.76389   4.34595 
 H                    -3.25189   1.9172    2.48047 
 O                    -0.49177   0.04604   1.28454 
 O                    -0.40582   0.17395  -1.4898 
 O                    -2.39578   0.30583  -2.46896 
 O                    -2.51296  -0.71621   1.78752 
 C                    -1.81094   0.01533  -3.74847 
 C                    -2.02623  -1.32614   2.99409 
 H                    -2.64515  -0.0416   -4.45343 
 H                    -1.27667  -0.94312  -3.69677 
 H                    -1.11503   0.81762  -4.02627 
 H                    -2.88482  -1.84814   3.4284 
 H                    -1.66124  -0.5449    3.67451 
 H                    -1.21124  -2.02366   2.75842 
 O                     2.40773  -0.19992   1.88089 
 O                     2.703    -0.62679  -1.42254 
 O                     0.34513   2.57907   0.34166 
 S                     1.01179   3.30358  -0.79318 
 S                     3.41896   0.90516   1.98613 
 S                     2.09883  -1.99233  -1.26522 
 O                     1.68682   2.23193  -1.58675 
 O                     1.75548   4.49383  -0.47843 
 O                     3.15492   1.76146   0.78971 
 O                     3.57292   1.54511   3.26403 
 O                     1.06083  -1.8394   -0.20553 
 O                     1.74105  -2.68634  -2.47777 
 C                     3.42499  -3.01202  -0.48563 
 C                     5.03141   0.08869   1.62649 
 C                    -0.38634   3.88414  -1.84685 
 F                     3.06233  -4.28006  -0.54992 
 F                     3.57823  -2.661     0.77556 
 F                     4.55145  -2.83421  -1.14367 
 F                     5.04693  -0.33678   0.37664 
 F                     5.1876   -0.93033   2.44824 
 F                     5.99847   0.96447   1.80961 
 F                    -1.02124   2.8526   -2.38302 
 F                     0.09952   4.64098  -2.81069 
 F                    -1.21958   4.58258  -1.10584 
 C                    -3.6892    1.25592  -0.14485 
 H                    -4.14761   1.314    -1.13892 
 C                    -4.18887  -2.38478  -0.31556 
 C                    -4.76369  -1.68804  -1.39726 
 C                    -4.81029  -2.44357   0.9467 
 C                    -1.20815  -4.47772   0.18823 
 C                    -1.23308  -3.43261  -1.93871 
 C                    -0.59878  -4.30327  -1.04531 
 H                    -0.7861   -5.12123   0.96106 
 H                    -0.80328  -3.21062  -2.91827 
 H                     0.3419   -4.78518  -1.30956 
 N                    -5.28077  -1.09341  -2.25832 
 N                    -5.29273  -2.50038   2.00855 
 N                    -2.95406  -3.02215  -0.50112 
 N                    -2.36814  -2.80569  -1.67611 
 C                    -2.40129  -3.81911   0.44726 
 H                    -2.95588  -3.9268    1.37998 
 Lu                    1.32172   0.52488  -0.01588 
 O                    -2.52566   2.05188   0.01652 
 
 Add virtual bond connecting atoms H60        and H22        Dist= 4.62D+00.
 ITRead=  0  0  0  0  0  0  0  0  0  0  0  0  0  0  0  0  0  0  0  0
 ITRead=  0  0  0  0  0  0  0  0  0  0  0  0  0  0  0  0  0  0  0  0
 ITRead=  0  0  0  0  0  0  0  0  0  0  0  0  0  0  0  0  0  0  0  0
 ITRead=  0  0  0  0  0  0  0  0  0
 MicOpt= -1 -1 -1 -1 -1 -1 -1 -1 -1 -1 -1 -1 -1 -1 -1 -1 -1 -1 -1 -1
 MicOpt= -1 -1 -1 -1 -1 -1 -1 -1 -1 -1 -1 -1 -1 -1 -1 -1 -1 -1 -1 -1
 MicOpt= -1 -1 -1 -1 -1 -1 -1 -1 -1 -1 -1 -1 -1 -1 -1 -1 -1 -1 -1 -1
 MicOpt= -1 -1 -1 -1 -1 -1 -1 -1 -1
 NAtoms=     69 NQM=       69 NQMF=       0 NMMI=      0 NMMIF=      0
                NMic=       0 NMicF=      0.
                    Isotopes and Nuclear Properties:
 (Nuclear quadrupole moments (NQMom) in fm**2, nuclear magnetic moments (NMagM)
  in nuclear magnetons)

  Atom         1           2           3           4           5           6           7           8           9          10
 IAtWgt=          12          12          12          12          12          12          12          12          12           1
 AtmWgt=  12.0000000  12.0000000  12.0000000  12.0000000  12.0000000  12.0000000  12.0000000  12.0000000  12.0000000   1.0078250
 NucSpn=           0           0           0           0           0           0           0           0           0           1
 AtZEff=  -0.0000000  -0.0000000  -0.0000000  -0.0000000  -0.0000000  -0.0000000  -0.0000000  -0.0000000  -0.0000000  -0.0000000
 NQMom=    0.0000000   0.0000000   0.0000000   0.0000000   0.0000000   0.0000000   0.0000000   0.0000000   0.0000000   0.0000000
 NMagM=    0.0000000   0.0000000   0.0000000   0.0000000   0.0000000   0.0000000   0.0000000   0.0000000   0.0000000   2.7928460
 AtZNuc=   6.0000000   6.0000000   6.0000000   6.0000000   6.0000000   6.0000000   6.0000000   6.0000000   6.0000000   1.0000000

  Atom        11          12          13          14          15          16          17          18          19          20
 IAtWgt=           1           1           1           1          16          16          16          16          12          12
 AtmWgt=   1.0078250   1.0078250   1.0078250   1.0078250  15.9949146  15.9949146  15.9949146  15.9949146  12.0000000  12.0000000
 NucSpn=           1           1           1           1           0           0           0           0           0           0
 AtZEff=  -0.0000000  -0.0000000  -0.0000000  -0.0000000  -0.0000000  -0.0000000  -0.0000000  -0.0000000  -0.0000000  -0.0000000
 NQMom=    0.0000000   0.0000000   0.0000000   0.0000000   0.0000000   0.0000000   0.0000000   0.0000000   0.0000000   0.0000000
 NMagM=    2.7928460   2.7928460   2.7928460   2.7928460   0.0000000   0.0000000   0.0000000   0.0000000   0.0000000   0.0000000
 AtZNuc=   1.0000000   1.0000000   1.0000000   1.0000000   8.0000000   8.0000000   8.0000000   8.0000000   6.0000000   6.0000000

  Atom        21          22          23          24          25          26          27          28          29          30
 IAtWgt=           1           1           1           1           1           1          16          16          16          32
 AtmWgt=   1.0078250   1.0078250   1.0078250   1.0078250   1.0078250   1.0078250  15.9949146  15.9949146  15.9949146  31.9720718
 NucSpn=           1           1           1           1           1           1           0           0           0           0
 AtZEff=  -0.0000000  -0.0000000  -0.0000000  -0.0000000  -0.0000000  -0.0000000  -0.0000000  -0.0000000  -0.0000000  -0.0000000
 NQMom=    0.0000000   0.0000000   0.0000000   0.0000000   0.0000000   0.0000000   0.0000000   0.0000000   0.0000000   0.0000000
 NMagM=    2.7928460   2.7928460   2.7928460   2.7928460   2.7928460   2.7928460   0.0000000   0.0000000   0.0000000   0.0000000
 AtZNuc=   1.0000000   1.0000000   1.0000000   1.0000000   1.0000000   1.0000000   8.0000000   8.0000000   8.0000000  16.0000000

  Atom        31          32          33          34          35          36          37          38          39          40
 IAtWgt=          32          32          16          16          16          16          16          16          12          12
 AtmWgt=  31.9720718  31.9720718  15.9949146  15.9949146  15.9949146  15.9949146  15.9949146  15.9949146  12.0000000  12.0000000
 NucSpn=           0           0           0           0           0           0           0           0           0           0
 AtZEff=  -0.0000000  -0.0000000  -0.0000000  -0.0000000  -0.0000000  -0.0000000  -0.0000000  -0.0000000  -0.0000000  -0.0000000
 NQMom=    0.0000000   0.0000000   0.0000000   0.0000000   0.0000000   0.0000000   0.0000000   0.0000000   0.0000000   0.0000000
 NMagM=    0.0000000   0.0000000   0.0000000   0.0000000   0.0000000   0.0000000   0.0000000   0.0000000   0.0000000   0.0000000
 AtZNuc=  16.0000000  16.0000000   8.0000000   8.0000000   8.0000000   8.0000000   8.0000000   8.0000000   6.0000000   6.0000000

  Atom        41          42          43          44          45          46          47          48          49          50
 IAtWgt=          12          19          19          19          19          19          19          19          19          19
 AtmWgt=  12.0000000  18.9984032  18.9984032  18.9984032  18.9984032  18.9984032  18.9984032  18.9984032  18.9984032  18.9984032
 NucSpn=           0           1           1           1           1           1           1           1           1           1
 AtZEff=  -0.0000000  -0.0000000  -0.0000000  -0.0000000  -0.0000000  -0.0000000  -0.0000000  -0.0000000  -0.0000000  -0.0000000
 NQMom=    0.0000000   0.0000000   0.0000000   0.0000000   0.0000000   0.0000000   0.0000000   0.0000000   0.0000000   0.0000000
 NMagM=    0.0000000   2.6288670   2.6288670   2.6288670   2.6288670   2.6288670   2.6288670   2.6288670   2.6288670   2.6288670
 AtZNuc=   6.0000000   9.0000000   9.0000000   9.0000000   9.0000000   9.0000000   9.0000000   9.0000000   9.0000000   9.0000000

  Atom        51          52          53          54          55          56          57          58          59          60
 IAtWgt=          12           1          12          12          12          12          12          12           1           1
 AtmWgt=  12.0000000   1.0078250  12.0000000  12.0000000  12.0000000  12.0000000  12.0000000  12.0000000   1.0078250   1.0078250
 NucSpn=           0           1           0           0           0           0           0           0           1           1
 AtZEff=  -0.0000000  -0.0000000  -0.0000000  -0.0000000  -0.0000000  -0.0000000  -0.0000000  -0.0000000  -0.0000000  -0.0000000
 NQMom=    0.0000000   0.0000000   0.0000000   0.0000000   0.0000000   0.0000000   0.0000000   0.0000000   0.0000000   0.0000000
 NMagM=    0.0000000   2.7928460   0.0000000   0.0000000   0.0000000   0.0000000   0.0000000   0.0000000   2.7928460   2.7928460
 AtZNuc=   6.0000000   1.0000000   6.0000000   6.0000000   6.0000000   6.0000000   6.0000000   6.0000000   1.0000000   1.0000000

  Atom        61          62          63          64          65          66          67          68          69
 IAtWgt=           1          14          14          14          14          12           1         175          16
 AtmWgt=   1.0078250  14.0030740  14.0030740  14.0030740  14.0030740  12.0000000   1.0078250 174.9409000  15.9949146
 NucSpn=           1           2           2           2           2           0           1           7           0
 AtZEff=  -0.0000000  -0.0000000  -0.0000000  -0.0000000  -0.0000000  -0.0000000  -0.0000000  -0.0000000  -0.0000000
 NQMom=    0.0000000   2.0440000   2.0440000   2.0440000   2.0440000   0.0000000   0.0000000 349.0000000   0.0000000
 NMagM=    2.7928460   0.4037610   0.4037610   0.4037610   0.4037610   0.0000000   2.7928460   2.2327000   0.0000000
 AtZNuc=   1.0000000   7.0000000   7.0000000   7.0000000   7.0000000   6.0000000   1.0000000  71.0000000   8.0000000
 Leave Link  101 at Wed Apr 30 13:37:19 2025, MaxMem= 12348030976 cpu:              17.5 elap:               1.1
 (Enter /sysapps/ubuntu-applications/gaussian-new/avx/g16/l103.exe)

 GradGradGradGradGradGradGradGradGradGradGradGradGradGradGradGradGradGrad
 Berny optimization.
 Initialization pass.
                           ----------------------------
                           !    Initial Parameters    !
                           ! (Angstroms and Degrees)  !
 --------------------------                            --------------------------
 ! Name  Definition              Value          Derivative Info.                !
 --------------------------------------------------------------------------------
 ! R1    R(1,2)                  1.3992         estimate D2E/DX2                !
 ! R2    R(1,6)                  1.4014         estimate D2E/DX2                !
 ! R3    R(1,51)                 1.4904         estimate D2E/DX2                !
 ! R4    R(2,3)                  1.3967         estimate D2E/DX2                !
 ! R5    R(2,10)                 1.0929         estimate D2E/DX2                !
 ! R6    R(3,4)                  1.3955         estimate D2E/DX2                !
 ! R7    R(3,11)                 1.0921         estimate D2E/DX2                !
 ! R8    R(4,5)                  1.3994         estimate D2E/DX2                !
 ! R9    R(4,12)                 1.0924         estimate D2E/DX2                !
 ! R10   R(5,6)                  1.3935         estimate D2E/DX2                !
 ! R11   R(5,13)                 1.0923         estimate D2E/DX2                !
 ! R12   R(6,14)                 1.094          estimate D2E/DX2                !
 ! R13   R(7,8)                  1.5141         estimate D2E/DX2                !
 ! R14   R(7,9)                  1.5157         estimate D2E/DX2                !
 ! R15   R(7,51)                 1.4861         estimate D2E/DX2                !
 ! R16   R(7,69)                 1.4101         estimate D2E/DX2                !
 ! R17   R(8,16)                 1.233          estimate D2E/DX2                !
 ! R18   R(8,17)                 1.2874         estimate D2E/DX2                !
 ! R19   R(9,15)                 1.2299         estimate D2E/DX2                !
 ! R20   R(9,18)                 1.291          estimate D2E/DX2                !
 ! R21   R(15,68)                2.2824         estimate D2E/DX2                !
 ! R22   R(16,68)                2.2978         estimate D2E/DX2                !
 ! R23   R(17,19)                1.4365         estimate D2E/DX2                !
 ! R24   R(18,20)                1.4369         estimate D2E/DX2                !
 ! R25   R(19,21)                1.0937         estimate D2E/DX2                !
 ! R26   R(19,22)                1.0985         estimate D2E/DX2                !
 ! R27   R(19,23)                1.0978         estimate D2E/DX2                !
 ! R28   R(20,24)                1.0947         estimate D2E/DX2                !
 ! R29   R(20,25)                1.0984         estimate D2E/DX2                !
 ! R30   R(20,26)                1.0983         estimate D2E/DX2                !
 ! R31   R(22,60)                2.4437         estimate D2E/DX2                !
 ! R32   R(27,31)                1.5016         estimate D2E/DX2                !
 ! R33   R(27,68)                2.3027         estimate D2E/DX2                !
 ! R34   R(28,32)                1.5015         estimate D2E/DX2                !
 ! R35   R(28,68)                2.2832         estimate D2E/DX2                !
 ! R36   R(29,30)                1.5024         estimate D2E/DX2                !
 ! R37   R(29,68)                2.3024         estimate D2E/DX2                !
 ! R38   R(30,33)                1.4946         estimate D2E/DX2                !
 ! R39   R(30,34)                1.4383         estimate D2E/DX2                !
 ! R40   R(30,41)                1.8445         estimate D2E/DX2                !
 ! R41   R(30,68)                2.902          estimate D2E/DX2                !
 ! R42   R(31,35)                1.4948         estimate D2E/DX2                !
 ! R43   R(31,36)                1.4375         estimate D2E/DX2                !
 ! R44   R(31,40)                1.8428         estimate D2E/DX2                !
 ! R45   R(31,68)                2.9242         estimate D2E/DX2                !
 ! R46   R(32,37)                1.4912         estimate D2E/DX2                !
 ! R47   R(32,38)                1.4422         estimate D2E/DX2                !
 ! R48   R(32,39)                1.8456         estimate D2E/DX2                !
 ! R49   R(32,68)                2.9157         estimate D2E/DX2                !
 ! R50   R(33,68)                2.3484         estimate D2E/DX2                !
 ! R51   R(35,68)                2.3534         estimate D2E/DX2                !
 ! R52   R(37,68)                2.3862         estimate D2E/DX2                !
 ! R53   R(39,42)                1.3204         estimate D2E/DX2                !
 ! R54   R(39,43)                1.3181         estimate D2E/DX2                !
 ! R55   R(39,44)                1.3166         estimate D2E/DX2                !
 ! R56   R(40,45)                1.3204         estimate D2E/DX2                !
 ! R57   R(40,46)                1.3184         estimate D2E/DX2                !
 ! R58   R(40,47)                1.3175         estimate D2E/DX2                !
 ! R59   R(41,48)                1.3246         estimate D2E/DX2                !
 ! R60   R(41,49)                1.3183         estimate D2E/DX2                !
 ! R61   R(41,50)                1.3158         estimate D2E/DX2                !
 ! R62   R(51,52)                1.0962         estimate D2E/DX2                !
 ! R63   R(51,69)                1.419          estimate D2E/DX2                !
 ! R64   R(53,54)                1.4092         estimate D2E/DX2                !
 ! R65   R(53,55)                1.4082         estimate D2E/DX2                !
 ! R66   R(53,64)                1.4019         estimate D2E/DX2                !
 ! R67   R(54,62)                1.1672         estimate D2E/DX2                !
 ! R68   R(55,63)                1.1677         estimate D2E/DX2                !
 ! R69   R(56,58)                1.3869         estimate D2E/DX2                !
 ! R70   R(56,59)                1.0906         estimate D2E/DX2                !
 ! R71   R(56,66)                1.3873         estimate D2E/DX2                !
 ! R72   R(57,58)                1.3995         estimate D2E/DX2                !
 ! R73   R(57,60)                1.0925         estimate D2E/DX2                !
 ! R74   R(57,65)                1.323          estimate D2E/DX2                !
 ! R75   R(58,61)                1.0895         estimate D2E/DX2                !
 ! R76   R(64,65)                1.3307         estimate D2E/DX2                !
 ! R77   R(64,66)                1.3565         estimate D2E/DX2                !
 ! R78   R(66,67)                1.0905         estimate D2E/DX2                !
 ! A1    A(2,1,6)              119.8207         estimate D2E/DX2                !
 ! A2    A(2,1,51)             118.7375         estimate D2E/DX2                !
 ! A3    A(6,1,51)             121.4256         estimate D2E/DX2                !
 ! A4    A(1,2,3)              120.0697         estimate D2E/DX2                !
 ! A5    A(1,2,10)             119.5368         estimate D2E/DX2                !
 ! A6    A(3,2,10)             120.3929         estimate D2E/DX2                !
 ! A7    A(2,3,4)              119.9975         estimate D2E/DX2                !
 ! A8    A(2,3,11)             119.797          estimate D2E/DX2                !
 ! A9    A(4,3,11)             120.2054         estimate D2E/DX2                !
 ! A10   A(3,4,5)              119.9883         estimate D2E/DX2                !
 ! A11   A(3,4,12)             120.0653         estimate D2E/DX2                !
 ! A12   A(5,4,12)             119.9409         estimate D2E/DX2                !
 ! A13   A(4,5,6)              120.1272         estimate D2E/DX2                !
 ! A14   A(4,5,13)             120.0737         estimate D2E/DX2                !
 ! A15   A(6,5,13)             119.7979         estimate D2E/DX2                !
 ! A16   A(1,6,5)              119.9453         estimate D2E/DX2                !
 ! A17   A(1,6,14)             119.8626         estimate D2E/DX2                !
 ! A18   A(5,6,14)             120.1918         estimate D2E/DX2                !
 ! A19   A(8,7,9)              112.5505         estimate D2E/DX2                !
 ! A20   A(8,7,51)             120.2302         estimate D2E/DX2                !
 ! A21   A(8,7,69)             111.7044         estimate D2E/DX2                !
 ! A22   A(9,7,51)             124.7371         estimate D2E/DX2                !
 ! A23   A(9,7,69)             115.4002         estimate D2E/DX2                !
 ! A24   A(7,8,16)             121.5224         estimate D2E/DX2                !
 ! A25   A(7,8,17)             114.7754         estimate D2E/DX2                !
 ! A26   A(16,8,17)            123.6333         estimate D2E/DX2                !
 ! A27   A(7,9,15)             121.5245         estimate D2E/DX2                !
 ! A28   A(7,9,18)             115.2553         estimate D2E/DX2                !
 ! A29   A(15,9,18)            123.2192         estimate D2E/DX2                !
 ! A30   A(9,15,68)            133.3133         estimate D2E/DX2                !
 ! A31   A(8,16,68)            134.1658         estimate D2E/DX2                !
 ! A32   A(8,17,19)            118.4099         estimate D2E/DX2                !
 ! A33   A(9,18,20)            119.1274         estimate D2E/DX2                !
 ! A34   A(17,19,21)           105.9093         estimate D2E/DX2                !
 ! A35   A(17,19,22)           109.4222         estimate D2E/DX2                !
 ! A36   A(17,19,23)           109.6147         estimate D2E/DX2                !
 ! A37   A(21,19,22)           110.8481         estimate D2E/DX2                !
 ! A38   A(21,19,23)           111.0054         estimate D2E/DX2                !
 ! A39   A(22,19,23)           109.9527         estimate D2E/DX2                !
 ! A40   A(18,20,24)           105.657          estimate D2E/DX2                !
 ! A41   A(18,20,25)           109.318          estimate D2E/DX2                !
 ! A42   A(18,20,26)           109.9227         estimate D2E/DX2                !
 ! A43   A(24,20,25)           110.7329         estimate D2E/DX2                !
 ! A44   A(24,20,26)           111.3644         estimate D2E/DX2                !
 ! A45   A(25,20,26)           109.7584         estimate D2E/DX2                !
 ! A46   A(19,22,60)           156.7498         estimate D2E/DX2                !
 ! A47   A(29,30,33)           104.8146         estimate D2E/DX2                !
 ! A48   A(29,30,34)           117.5938         estimate D2E/DX2                !
 ! A49   A(29,30,41)           104.2963         estimate D2E/DX2                !
 ! A50   A(33,30,34)           118.4247         estimate D2E/DX2                !
 ! A51   A(33,30,41)           105.3502         estimate D2E/DX2                !
 ! A52   A(34,30,41)           104.8608         estimate D2E/DX2                !
 ! A53   A(34,30,68)           132.729          estimate D2E/DX2                !
 ! A54   A(41,30,68)           122.3679         estimate D2E/DX2                !
 ! A55   A(27,31,35)           104.2722         estimate D2E/DX2                !
 ! A56   A(27,31,36)           117.5208         estimate D2E/DX2                !
 ! A57   A(27,31,40)           104.4482         estimate D2E/DX2                !
 ! A58   A(35,31,36)           118.3883         estimate D2E/DX2                !
 ! A59   A(35,31,40)           104.6053         estimate D2E/DX2                !
 ! A60   A(36,31,40)           106.0827         estimate D2E/DX2                !
 ! A61   A(36,31,68)           138.018          estimate D2E/DX2                !
 ! A62   A(40,31,68)           115.8686         estimate D2E/DX2                !
 ! A63   A(28,32,37)           105.1458         estimate D2E/DX2                !
 ! A64   A(28,32,38)           116.7033         estimate D2E/DX2                !
 ! A65   A(28,32,39)           104.9278         estimate D2E/DX2                !
 ! A66   A(37,32,38)           118.3026         estimate D2E/DX2                !
 ! A67   A(37,32,39)           104.8717         estimate D2E/DX2                !
 ! A68   A(38,32,39)           105.5176         estimate D2E/DX2                !
 ! A69   A(38,32,68)           135.2018         estimate D2E/DX2                !
 ! A70   A(39,32,68)           119.1772         estimate D2E/DX2                !
 ! A71   A(32,39,42)           108.2192         estimate D2E/DX2                !
 ! A72   A(32,39,43)           109.9121         estimate D2E/DX2                !
 ! A73   A(32,39,44)           109.2103         estimate D2E/DX2                !
 ! A74   A(42,39,43)           109.5278         estimate D2E/DX2                !
 ! A75   A(42,39,44)           109.897          estimate D2E/DX2                !
 ! A76   A(43,39,44)           110.0469         estimate D2E/DX2                !
 ! A77   A(31,40,45)           109.7423         estimate D2E/DX2                !
 ! A78   A(31,40,46)           108.9339         estimate D2E/DX2                !
 ! A79   A(31,40,47)           108.7003         estimate D2E/DX2                !
 ! A80   A(45,40,46)           109.8506         estimate D2E/DX2                !
 ! A81   A(45,40,47)           109.7024         estimate D2E/DX2                !
 ! A82   A(46,40,47)           109.8899         estimate D2E/DX2                !
 ! A83   A(30,41,48)           110.4528         estimate D2E/DX2                !
 ! A84   A(30,41,49)           108.6029         estimate D2E/DX2                !
 ! A85   A(30,41,50)           108.9889         estimate D2E/DX2                !
 ! A86   A(48,41,49)           109.1352         estimate D2E/DX2                !
 ! A87   A(48,41,50)           109.7432         estimate D2E/DX2                !
 ! A88   A(49,41,50)           109.9014         estimate D2E/DX2                !
 ! A89   A(1,51,7)             124.9117         estimate D2E/DX2                !
 ! A90   A(1,51,52)            115.0572         estimate D2E/DX2                !
 ! A91   A(1,51,69)            117.6019         estimate D2E/DX2                !
 ! A92   A(7,51,52)            114.2741         estimate D2E/DX2                !
 ! A93   A(52,51,69)           114.602          estimate D2E/DX2                !
 ! A94   A(54,53,55)           121.9168         estimate D2E/DX2                !
 ! A95   A(54,53,64)           118.8454         estimate D2E/DX2                !
 ! A96   A(55,53,64)           119.2327         estimate D2E/DX2                !
 ! A97   A(58,56,59)           122.307          estimate D2E/DX2                !
 ! A98   A(58,56,66)           118.9644         estimate D2E/DX2                !
 ! A99   A(59,56,66)           118.7271         estimate D2E/DX2                !
 ! A100  A(58,57,60)           121.3644         estimate D2E/DX2                !
 ! A101  A(58,57,65)           123.8452         estimate D2E/DX2                !
 ! A102  A(60,57,65)           114.7848         estimate D2E/DX2                !
 ! A103  A(56,58,57)           116.5456         estimate D2E/DX2                !
 ! A104  A(56,58,61)           122.6475         estimate D2E/DX2                !
 ! A105  A(57,58,61)           120.7771         estimate D2E/DX2                !
 ! A106  A(22,60,57)           113.4509         estimate D2E/DX2                !
 ! A107  A(53,64,65)           115.5142         estimate D2E/DX2                !
 ! A108  A(53,64,66)           122.2408         estimate D2E/DX2                !
 ! A109  A(65,64,66)           122.2404         estimate D2E/DX2                !
 ! A110  A(57,65,64)           118.4201         estimate D2E/DX2                !
 ! A111  A(56,66,64)           119.9246         estimate D2E/DX2                !
 ! A112  A(56,66,67)           123.3836         estimate D2E/DX2                !
 ! A113  A(64,66,67)           116.6647         estimate D2E/DX2                !
 ! A114  A(15,68,16)            74.696          estimate D2E/DX2                !
 ! A115  A(15,68,27)            80.7567         estimate D2E/DX2                !
 ! A116  A(15,68,28)           136.5439         estimate D2E/DX2                !
 ! A117  A(15,68,29)            76.2127         estimate D2E/DX2                !
 ! A118  A(15,68,30)           105.5835         estimate D2E/DX2                !
 ! A119  A(15,68,31)           101.9503         estimate D2E/DX2                !
 ! A120  A(15,68,32)           105.9493         estimate D2E/DX2                !
 ! A121  A(15,68,33)           131.0838         estimate D2E/DX2                !
 ! A122  A(15,68,35)           122.2849         estimate D2E/DX2                !
 ! A123  A(15,68,37)            75.554          estimate D2E/DX2                !
 ! A124  A(16,68,27)           146.6017         estimate D2E/DX2                !
 ! A125  A(16,68,28)            89.0033         estimate D2E/DX2                !
 ! A126  A(16,68,29)            85.2377         estimate D2E/DX2                !
 ! A127  A(16,68,30)            83.9227         estimate D2E/DX2                !
 ! A128  A(16,68,32)            78.0929         estimate D2E/DX2                !
 ! A129  A(16,68,33)            78.3945         estimate D2E/DX2                !
 ! A130  A(16,68,35)           152.305          estimate D2E/DX2                !
 ! A131  A(16,68,37)            73.4709         estimate D2E/DX2                !
 ! A132  A(27,68,28)            93.6349         estimate D2E/DX2                !
 ! A133  A(27,68,29)           110.6677         estimate D2E/DX2                !
 ! A134  A(27,68,30)           124.9171         estimate D2E/DX2                !
 ! A135  A(27,68,32)            87.45           estimate D2E/DX2                !
 ! A136  A(27,68,33)           134.9483         estimate D2E/DX2                !
 ! A137  A(27,68,35)            61.057          estimate D2E/DX2                !
 ! A138  A(27,68,37)            78.7647         estimate D2E/DX2                !
 ! A139  A(28,68,29)           143.3503         estimate D2E/DX2                !
 ! A140  A(28,68,30)           112.4934         estimate D2E/DX2                !
 ! A141  A(28,68,31)            93.0674         estimate D2E/DX2                !
 ! A142  A(28,68,33)            81.9806         estimate D2E/DX2                !
 ! A143  A(28,68,35)            90.2685         estimate D2E/DX2                !
 ! A144  A(28,68,37)            61.1444         estimate D2E/DX2                !
 ! A145  A(29,68,31)            94.6956         estimate D2E/DX2                !
 ! A146  A(29,68,32)           161.776          estimate D2E/DX2                !
 ! A147  A(29,68,33)            61.3989         estimate D2E/DX2                !
 ! A148  A(29,68,35)            78.9572         estimate D2E/DX2                !
 ! A149  A(29,68,37)           148.2068         estimate D2E/DX2                !
 ! A150  A(30,68,31)            97.7849         estimate D2E/DX2                !
 ! A151  A(30,68,32)           137.7623         estimate D2E/DX2                !
 ! A152  A(30,68,35)            70.8383         estimate D2E/DX2                !
 ! A153  A(30,68,37)           156.3153         estimate D2E/DX2                !
 ! A154  A(31,68,32)           102.385          estimate D2E/DX2                !
 ! A155  A(31,68,33)           104.5917         estimate D2E/DX2                !
 ! A156  A(31,68,37)           105.1697         estimate D2E/DX2                !
 ! A157  A(32,68,33)           107.4278         estimate D2E/DX2                !
 ! A158  A(32,68,35)           113.122          estimate D2E/DX2                !
 ! A159  A(33,68,35)            74.0936         estimate D2E/DX2                !
 ! A160  A(33,68,37)           133.1621         estimate D2E/DX2                !
 ! A161  A(35,68,37)           129.2704         estimate D2E/DX2                !
 ! A162  L(53,54,62,1,-1)      178.2973         estimate D2E/DX2                !
 ! A163  L(53,55,63,1,-1)      180.3163         estimate D2E/DX2                !
 ! A164  L(16,68,31,15,-1)     176.6464         estimate D2E/DX2                !
 ! A165  L(53,54,62,1,-2)      182.2079         estimate D2E/DX2                !
 ! A166  L(53,55,63,1,-2)      181.7941         estimate D2E/DX2                !
 ! A167  L(16,68,31,15,-2)     179.2696         estimate D2E/DX2                !
 ! D1    D(6,1,2,3)             -2.3548         estimate D2E/DX2                !
 ! D2    D(6,1,2,10)           177.9059         estimate D2E/DX2                !
 ! D3    D(51,1,2,3)           179.089          estimate D2E/DX2                !
 ! D4    D(51,1,2,10)           -0.6503         estimate D2E/DX2                !
 ! D5    D(2,1,6,5)              2.4158         estimate D2E/DX2                !
 ! D6    D(2,1,6,14)          -177.3569         estimate D2E/DX2                !
 ! D7    D(51,1,6,5)          -179.0678         estimate D2E/DX2                !
 ! D8    D(51,1,6,14)            1.1595         estimate D2E/DX2                !
 ! D9    D(2,1,51,7)          -131.5873         estimate D2E/DX2                !
 ! D10   D(2,1,51,52)           20.0187         estimate D2E/DX2                !
 ! D11   D(2,1,51,69)          159.7499         estimate D2E/DX2                !
 ! D12   D(6,1,51,7)            49.8806         estimate D2E/DX2                !
 ! D13   D(6,1,51,52)         -158.5134         estimate D2E/DX2                !
 ! D14   D(6,1,51,69)          -18.7821         estimate D2E/DX2                !
 ! D15   D(1,2,3,4)              0.6144         estimate D2E/DX2                !
 ! D16   D(1,2,3,11)          -179.4485         estimate D2E/DX2                !
 ! D17   D(10,2,3,4)          -179.6486         estimate D2E/DX2                !
 ! D18   D(10,2,3,11)            0.2886         estimate D2E/DX2                !
 ! D19   D(2,3,4,5)              1.0685         estimate D2E/DX2                !
 ! D20   D(2,3,4,12)          -179.7827         estimate D2E/DX2                !
 ! D21   D(11,3,4,5)          -178.8684         estimate D2E/DX2                !
 ! D22   D(11,3,4,12)            0.2804         estimate D2E/DX2                !
 ! D23   D(3,4,5,6)             -1.0058         estimate D2E/DX2                !
 ! D24   D(3,4,5,13)           178.5963         estimate D2E/DX2                !
 ! D25   D(12,4,5,6)           179.8443         estimate D2E/DX2                !
 ! D26   D(12,4,5,13)           -0.5535         estimate D2E/DX2                !
 ! D27   D(4,5,6,1)             -0.7396         estimate D2E/DX2                !
 ! D28   D(4,5,6,14)           179.0323         estimate D2E/DX2                !
 ! D29   D(13,5,6,1)           179.6572         estimate D2E/DX2                !
 ! D30   D(13,5,6,14)           -0.5709         estimate D2E/DX2                !
 ! D31   D(9,7,8,16)           -35.7643         estimate D2E/DX2                !
 ! D32   D(9,7,8,17)           147.1489         estimate D2E/DX2                !
 ! D33   D(51,7,8,16)          161.2819         estimate D2E/DX2                !
 ! D34   D(51,7,8,17)          -15.8048         estimate D2E/DX2                !
 ! D35   D(69,7,8,16)           95.9313         estimate D2E/DX2                !
 ! D36   D(69,7,8,17)          -81.1555         estimate D2E/DX2                !
 ! D37   D(8,7,9,15)            52.6257         estimate D2E/DX2                !
 ! D38   D(8,7,9,18)          -127.0227         estimate D2E/DX2                !
 ! D39   D(51,7,9,15)         -145.3256         estimate D2E/DX2                !
 ! D40   D(51,7,9,18)           35.0259         estimate D2E/DX2                !
 ! D41   D(69,7,9,15)          -77.2005         estimate D2E/DX2                !
 ! D42   D(69,7,9,18)          103.1511         estimate D2E/DX2                !
 ! D43   D(8,7,51,1)           158.2995         estimate D2E/DX2                !
 ! D44   D(8,7,51,52)            6.4998         estimate D2E/DX2                !
 ! D45   D(9,7,51,1)            -2.4654         estimate D2E/DX2                !
 ! D46   D(9,7,51,52)         -154.265          estimate D2E/DX2                !
 ! D47   D(7,8,16,68)          -10.1726         estimate D2E/DX2                !
 ! D48   D(17,8,16,68)         166.6502         estimate D2E/DX2                !
 ! D49   D(7,8,17,19)          179.4275         estimate D2E/DX2                !
 ! D50   D(16,8,17,19)           2.4103         estimate D2E/DX2                !
 ! D51   D(7,9,15,68)          -22.5786         estimate D2E/DX2                !
 ! D52   D(18,9,15,68)         157.0414         estimate D2E/DX2                !
 ! D53   D(7,9,18,20)         -175.1452         estimate D2E/DX2                !
 ! D54   D(15,9,18,20)           5.213          estimate D2E/DX2                !
 ! D55   D(9,15,68,16)         -12.2051         estimate D2E/DX2                !
 ! D56   D(9,15,68,27)        -169.3481         estimate D2E/DX2                !
 ! D57   D(9,15,68,28)         -83.8428         estimate D2E/DX2                !
 ! D58   D(9,15,68,29)          76.5642         estimate D2E/DX2                !
 ! D59   D(9,15,68,30)          66.8265         estimate D2E/DX2                !
 ! D60   D(9,15,68,31)         168.5253         estimate D2E/DX2                !
 ! D61   D(9,15,68,32)         -84.7067         estimate D2E/DX2                !
 ! D62   D(9,15,68,33)          46.7784         estimate D2E/DX2                !
 ! D63   D(9,15,68,35)         143.7137         estimate D2E/DX2                !
 ! D64   D(9,15,68,37)         -88.6667         estimate D2E/DX2                !
 ! D65   D(8,16,68,15)          29.938          estimate D2E/DX2                !
 ! D66   D(8,16,68,27)          74.0843         estimate D2E/DX2                !
 ! D67   D(8,16,68,28)         169.1791         estimate D2E/DX2                !
 ! D68   D(8,16,68,29)         -47.051          estimate D2E/DX2                !
 ! D69   D(8,16,68,30)         -78.0747         estimate D2E/DX2                !
 ! D70   D(8,16,68,32)         140.3553         estimate D2E/DX2                !
 ! D71   D(8,16,68,33)        -108.8033         estimate D2E/DX2                !
 ! D72   D(8,16,68,35)        -102.1424         estimate D2E/DX2                !
 ! D73   D(8,16,68,37)         109.068          estimate D2E/DX2                !
 ! D74   D(8,17,19,21)         175.4284         estimate D2E/DX2                !
 ! D75   D(8,17,19,22)          55.8973         estimate D2E/DX2                !
 ! D76   D(8,17,19,23)         -64.7518         estimate D2E/DX2                !
 ! D77   D(9,18,20,24)        -179.378          estimate D2E/DX2                !
 ! D78   D(9,18,20,25)          61.4234         estimate D2E/DX2                !
 ! D79   D(9,18,20,26)         -59.1127         estimate D2E/DX2                !
 ! D80   D(17,19,22,60)         29.8895         estimate D2E/DX2                !
 ! D81   D(21,19,22,60)        -86.5527         estimate D2E/DX2                !
 ! D82   D(23,19,22,60)        150.3326         estimate D2E/DX2                !
 ! D83   D(19,22,60,57)        -21.2553         estimate D2E/DX2                !
 ! D84   D(29,30,41,48)        -66.0364         estimate D2E/DX2                !
 ! D85   D(29,30,41,49)        174.3155         estimate D2E/DX2                !
 ! D86   D(29,30,41,50)         54.6019         estimate D2E/DX2                !
 ! D87   D(33,30,41,48)         44.0586         estimate D2E/DX2                !
 ! D88   D(33,30,41,49)        -75.5895         estimate D2E/DX2                !
 ! D89   D(33,30,41,50)        164.6969         estimate D2E/DX2                !
 ! D90   D(34,30,41,48)        169.7581         estimate D2E/DX2                !
 ! D91   D(34,30,41,49)         50.11           estimate D2E/DX2                !
 ! D92   D(34,30,41,50)        -69.6035         estimate D2E/DX2                !
 ! D93   D(68,30,41,48)        -12.3311         estimate D2E/DX2                !
 ! D94   D(68,30,41,49)       -131.9792         estimate D2E/DX2                !
 ! D95   D(68,30,41,50)        108.3072         estimate D2E/DX2                !
 ! D96   D(34,30,68,15)        113.0894         estimate D2E/DX2                !
 ! D97   D(34,30,68,16)       -174.6841         estimate D2E/DX2                !
 ! D98   D(34,30,68,27)         23.5869         estimate D2E/DX2                !
 ! D99   D(34,30,68,28)        -88.2973         estimate D2E/DX2                !
 ! D100  D(34,30,68,31)          8.3102         estimate D2E/DX2                !
 ! D101  D(34,30,68,32)       -109.8938         estimate D2E/DX2                !
 ! D102  D(34,30,68,35)         -6.2594         estimate D2E/DX2                !
 ! D103  D(34,30,68,37)       -157.422          estimate D2E/DX2                !
 ! D104  D(41,30,68,15)        -64.1611         estimate D2E/DX2                !
 ! D105  D(41,30,68,16)          8.0654         estimate D2E/DX2                !
 ! D106  D(41,30,68,27)       -153.6636         estimate D2E/DX2                !
 ! D107  D(41,30,68,28)         94.4522         estimate D2E/DX2                !
 ! D108  D(41,30,68,31)       -168.9403         estimate D2E/DX2                !
 ! D109  D(41,30,68,32)         72.8557         estimate D2E/DX2                !
 ! D110  D(41,30,68,35)        176.49           estimate D2E/DX2                !
 ! D111  D(41,30,68,37)         25.3275         estimate D2E/DX2                !
 ! D112  D(27,31,40,45)         65.3711         estimate D2E/DX2                !
 ! D113  D(27,31,40,46)        -54.9286         estimate D2E/DX2                !
 ! D114  D(27,31,40,47)       -174.6534         estimate D2E/DX2                !
 ! D115  D(35,31,40,45)        -43.911          estimate D2E/DX2                !
 ! D116  D(35,31,40,46)       -164.2107         estimate D2E/DX2                !
 ! D117  D(35,31,40,47)         76.0645         estimate D2E/DX2                !
 ! D118  D(36,31,40,45)       -169.8173         estimate D2E/DX2                !
 ! D119  D(36,31,40,46)         69.8831         estimate D2E/DX2                !
 ! D120  D(36,31,40,47)        -49.8417         estimate D2E/DX2                !
 ! D121  D(68,31,40,45)         11.831          estimate D2E/DX2                !
 ! D122  D(68,31,40,46)       -108.4687         estimate D2E/DX2                !
 ! D123  D(68,31,40,47)        131.8065         estimate D2E/DX2                !
 ! D124  D(36,31,68,15)        -42.5695         estimate D2E/DX2                !
 ! D125  D(36,31,68,28)        178.4586         estimate D2E/DX2                !
 ! D126  D(36,31,68,29)         34.3081         estimate D2E/DX2                !
 ! D127  D(36,31,68,30)         65.2539         estimate D2E/DX2                !
 ! D128  D(36,31,68,32)       -152.0838         estimate D2E/DX2                !
 ! D129  D(36,31,68,33)         95.9522         estimate D2E/DX2                !
 ! D130  D(36,31,68,37)       -120.6336         estimate D2E/DX2                !
 ! D131  D(40,31,68,15)        135.0625         estimate D2E/DX2                !
 ! D132  D(40,31,68,28)         -3.9094         estimate D2E/DX2                !
 ! D133  D(40,31,68,29)       -148.06           estimate D2E/DX2                !
 ! D134  D(40,31,68,30)       -117.1141         estimate D2E/DX2                !
 ! D135  D(40,31,68,32)         25.5482         estimate D2E/DX2                !
 ! D136  D(40,31,68,33)        -86.4158         estimate D2E/DX2                !
 ! D137  D(40,31,68,37)         56.9984         estimate D2E/DX2                !
 ! D138  D(28,32,39,42)       -168.1446         estimate D2E/DX2                !
 ! D139  D(28,32,39,43)         72.2836         estimate D2E/DX2                !
 ! D140  D(28,32,39,44)        -48.5336         estimate D2E/DX2                !
 ! D141  D(37,32,39,42)         81.3333         estimate D2E/DX2                !
 ! D142  D(37,32,39,43)        -38.2385         estimate D2E/DX2                !
 ! D143  D(37,32,39,44)       -159.0557         estimate D2E/DX2                !
 ! D144  D(38,32,39,42)        -44.318          estimate D2E/DX2                !
 ! D145  D(38,32,39,43)       -163.8898         estimate D2E/DX2                !
 ! D146  D(38,32,39,44)         75.293          estimate D2E/DX2                !
 ! D147  D(68,32,39,42)        138.8318         estimate D2E/DX2                !
 ! D148  D(68,32,39,43)         19.26           estimate D2E/DX2                !
 ! D149  D(68,32,39,44)       -101.5572         estimate D2E/DX2                !
 ! D150  D(38,32,68,15)         88.8141         estimate D2E/DX2                !
 ! D151  D(38,32,68,16)         18.7401         estimate D2E/DX2                !
 ! D152  D(38,32,68,27)        168.4473         estimate D2E/DX2                !
 ! D153  D(38,32,68,29)         -5.5126         estimate D2E/DX2                !
 ! D154  D(38,32,68,30)        -48.1063         estimate D2E/DX2                !
 ! D155  D(38,32,68,31)       -164.7321         estimate D2E/DX2                !
 ! D156  D(38,32,68,33)        -54.8995         estimate D2E/DX2                !
 ! D157  D(38,32,68,35)       -134.6284         estimate D2E/DX2                !
 ! D158  D(39,32,68,15)        -95.4952         estimate D2E/DX2                !
 ! D159  D(39,32,68,16)       -165.5692         estimate D2E/DX2                !
 ! D160  D(39,32,68,27)        -15.862          estimate D2E/DX2                !
 ! D161  D(39,32,68,29)        170.1782         estimate D2E/DX2                !
 ! D162  D(39,32,68,30)        127.5845         estimate D2E/DX2                !
 ! D163  D(39,32,68,31)         10.9586         estimate D2E/DX2                !
 ! D164  D(39,32,68,33)        120.7912         estimate D2E/DX2                !
 ! D165  D(39,32,68,35)         41.0623         estimate D2E/DX2                !
 ! D166  D(54,53,64,65)          5.8408         estimate D2E/DX2                !
 ! D167  D(54,53,64,66)       -173.3928         estimate D2E/DX2                !
 ! D168  D(55,53,64,65)       -173.3516         estimate D2E/DX2                !
 ! D169  D(55,53,64,66)          7.4148         estimate D2E/DX2                !
 ! D170  D(59,56,58,57)       -178.9541         estimate D2E/DX2                !
 ! D171  D(59,56,58,61)         -0.9263         estimate D2E/DX2                !
 ! D172  D(66,56,58,57)          1.509          estimate D2E/DX2                !
 ! D173  D(66,56,58,61)        179.5368         estimate D2E/DX2                !
 ! D174  D(58,56,66,64)          0.1424         estimate D2E/DX2                !
 ! D175  D(58,56,66,67)        178.1812         estimate D2E/DX2                !
 ! D176  D(59,56,66,64)       -179.4112         estimate D2E/DX2                !
 ! D177  D(59,56,66,67)         -1.3724         estimate D2E/DX2                !
 ! D178  D(60,57,58,56)        177.8399         estimate D2E/DX2                !
 ! D179  D(60,57,58,61)         -0.2273         estimate D2E/DX2                !
 ! D180  D(65,57,58,56)         -1.2592         estimate D2E/DX2                !
 ! D181  D(65,57,58,61)       -179.3264         estimate D2E/DX2                !
 ! D182  D(58,57,60,22)       -147.5876         estimate D2E/DX2                !
 ! D183  D(65,57,60,22)         31.5883         estimate D2E/DX2                !
 ! D184  D(58,57,65,64)         -0.7561         estimate D2E/DX2                !
 ! D185  D(60,57,65,64)       -179.9088         estimate D2E/DX2                !
 ! D186  D(53,64,65,57)       -176.6621         estimate D2E/DX2                !
 ! D187  D(66,64,65,57)          2.5715         estimate D2E/DX2                !
 ! D188  D(53,64,66,56)        176.8927         estimate D2E/DX2                !
 ! D189  D(53,64,66,67)         -1.2748         estimate D2E/DX2                !
 ! D190  D(65,64,66,56)         -2.2896         estimate D2E/DX2                !
 ! D191  D(65,64,66,67)        179.5429         estimate D2E/DX2                !
 --------------------------------------------------------------------------------
 Trust Radius=3.00D-01 FncErr=1.00D-07 GrdErr=1.00D-06 EigMax=2.50D+02 EigMin=1.00D-04
 Number of steps in this run=    414 maximum allowed number of steps=    414.
 GradGradGradGradGradGradGradGradGradGradGradGradGradGradGradGradGradGrad

 Leave Link  103 at Wed Apr 30 13:37:19 2025, MaxMem= 12348030976 cpu:               2.0 elap:               0.2
 (Enter /sysapps/ubuntu-applications/gaussian-new/avx/g16/l202.exe)
 Stoichiometry    C22H16F9LuN4O14S3
 Framework group  C1[X(C22H16F9LuN4O14S3)]
 Deg. of freedom   201
 Full point group                 C1      NOp   1
 Largest Abelian subgroup         C1      NOp   1
 Largest concise Abelian subgroup C1      NOp   1
                         Standard orientation:                         
 ---------------------------------------------------------------------
 Center     Atomic      Atomic             Coordinates (Angstroms)
 Number     Number       Type             X           Y           Z
 ---------------------------------------------------------------------
      1          6           0        4.651594   -1.201286    0.991843
      2          6           0        5.969485   -0.804942    0.739060
      3          6           0        6.889607   -0.725604    1.786842
      4          6           0        6.498254   -1.054143    3.085421
      5          6           0        5.190095   -1.484482    3.333942
      6          6           0        4.270353   -1.565842    2.290193
      7          6           0        2.326021   -0.664125   -0.134325
      8          6           0        1.626761   -0.337337   -1.436916
      9          6           0        1.697247    0.035257    1.054329
     10          1           0        6.270543   -0.554662   -0.281350
     11          1           0        7.914736   -0.407051    1.585924
     12          1           0        7.216020   -0.989079    3.906299
     13          1           0        4.888758   -1.763885    4.345952
     14          1           0        3.251889   -1.917198    2.480469
     15          8           0        0.491772   -0.046041    1.284535
     16          8           0        0.405816   -0.173952   -1.489801
     17          8           0        2.395777   -0.305827   -2.468955
     18          8           0        2.512956    0.716209    1.787520
     19          6           0        1.810936   -0.015330   -3.748468
     20          6           0        2.026225    1.326138    2.994087
     21          1           0        2.645153    0.041599   -4.453427
     22          1           0        1.276669    0.943122   -3.696770
     23          1           0        1.115029   -0.817622   -4.026272
     24          1           0        2.884823    1.848142    3.428397
     25          1           0        1.661243    0.544903    3.674512
     26          1           0        1.211239    2.023660    2.758417
     27          8           0       -2.407729    0.199916    1.880891
     28          8           0       -2.702998    0.626792   -1.422544
     29          8           0       -0.345134   -2.579071    0.341660
     30         16           0       -1.011792   -3.303583   -0.793175
     31         16           0       -3.418955   -0.905164    1.986134
     32         16           0       -2.098830    1.992329   -1.265217
     33          8           0       -1.686822   -2.231926   -1.586746
     34          8           0       -1.755482   -4.493832   -0.478434
     35          8           0       -3.154920   -1.761456    0.789709
     36          8           0       -3.572922   -1.545114    3.264033
     37          8           0       -1.060829    1.839399   -0.205526
     38          8           0       -1.741048    2.686335   -2.477770
     39          6           0       -3.424989    3.012018   -0.485628
     40          6           0       -5.031408   -0.088685    1.626491
     41          6           0        0.386341   -3.884136   -1.846854
     42          9           0       -3.062328    4.280060   -0.549919
     43          9           0       -3.578227    2.660999    0.775555
     44          9           0       -4.551446    2.834212   -1.143668
     45          9           0       -5.046934    0.336775    0.376636
     46          9           0       -5.187598    0.930327    2.448242
     47          9           0       -5.998466   -0.964472    1.809608
     48          9           0        1.021239   -2.852596   -2.383018
     49          9           0       -0.099516   -4.640981   -2.810690
     50          9           0        1.219581   -4.582581   -1.105836
     51          6           0        3.689198   -1.255915   -0.144850
     52          1           0        4.147614   -1.313996   -1.138922
     53          6           0        4.188872    2.384784   -0.315556
     54          6           0        4.763688    1.688037   -1.397255
     55          6           0        4.810293    2.443572    0.946704
     56          6           0        1.208146    4.477724    0.188229
     57          6           0        1.233083    3.432605   -1.938710
     58          6           0        0.598775    4.303268   -1.045313
     59          1           0        0.786096    5.121230    0.961063
     60          1           0        0.803276    3.210623   -2.918274
     61          1           0       -0.341901    4.785176   -1.309557
     62          7           0        5.280770    1.093412   -2.258316
     63          7           0        5.292727    2.500383    2.008555
     64          7           0        2.954055    3.022150   -0.501115
     65          7           0        2.368136    2.805685   -1.676114
     66          6           0        2.401291    3.819110    0.447258
     67          1           0        2.955884    3.926802    1.379977
     68         71           0       -1.321724   -0.524883   -0.015880
     69          8           0        2.525661   -2.051885    0.016521
 ---------------------------------------------------------------------
 Rotational constants (GHZ):           0.0687541           0.0416407           0.0348270
 Leave Link  202 at Wed Apr 30 13:37:19 2025, MaxMem= 12348030976 cpu:               3.4 elap:               0.2
 (Enter /sysapps/ubuntu-applications/gaussian-new/avx/g16/l301.exe)
 General basis read from cards:  (5D, 7F)
 Centers:      10     11     12     13     14     21     22     23     24     25
 Centers:      26     52     59     60     61     67
 S 3 1.00
     Exponent=  1.3010701000D+01 Coefficients=  1.9682158000D-02
     Exponent=  1.9622572000D+00 Coefficients=  1.3796524000D-01
     Exponent=  4.4453796000D-01 Coefficients=  4.7831935000D-01
 S 1 1.00
     Exponent=  1.2194962000D-01 Coefficients=  1.0000000000D+00
 P 1 1.00
     Exponent=  8.0000000000D-01 Coefficients=  1.0000000000D+00
 ****
 Centers:       1      2      3      4      5      6      7      8      9     19
 Centers:      20     39     40     41     51     53     54     55     56     57
 Centers:      58     66
 S 5 1.00
     Exponent=  1.2384016938D+03 Coefficients=  5.4568832082D-03
     Exponent=  1.8629004992D+02 Coefficients=  4.0638409211D-02
     Exponent=  4.2251176346D+01 Coefficients=  1.8025593888D-01
     Exponent=  1.1676557932D+01 Coefficients=  4.6315121755D-01
     Exponent=  3.5930506482D+00 Coefficients=  4.4087173314D-01
 S 1 1.00
     Exponent=  4.0245147363D-01 Coefficients=  1.0000000000D+00
 S 1 1.00
     Exponent=  1.3090182668D-01 Coefficients=  1.0000000000D+00
 P 3 1.00
     Exponent=  9.4680970621D+00 Coefficients=  3.8387871728D-02
     Exponent=  2.0103545142D+00 Coefficients=  2.1117025112D-01
     Exponent=  5.4771004707D-01 Coefficients=  5.1328172114D-01
 P 1 1.00
     Exponent=  1.5268613795D-01 Coefficients=  1.0000000000D+00
 D 1 1.00
     Exponent=  8.0000000000D-01 Coefficients=  1.0000000000D+00
 ****
 Centers:      62     63     64     65
 S 5 1.00
     Exponent=  1.7128415853D+03 Coefficients= -5.3934125305D-03
     Exponent=  2.5764812677D+02 Coefficients= -4.0221581118D-02
     Exponent=  5.8458245853D+01 Coefficients= -1.7931144990D-01
     Exponent=  1.6198367905D+01 Coefficients= -4.6376317823D-01
     Exponent=  5.0052600809D+00 Coefficients= -4.4171422662D-01
 S 1 1.00
     Exponent=  5.8731856571D-01 Coefficients=  1.0000000000D+00
 S 1 1.00
     Exponent=  1.8764592253D-01 Coefficients=  1.0000000000D+00
 P 3 1.00
     Exponent=  1.3571470233D+01 Coefficients= -4.0072398852D-02
     Exponent=  2.9257372874D+00 Coefficients= -2.1807045028D-01
     Exponent=  7.9927750754D-01 Coefficients= -5.1294466049D-01
 P 1 1.00
     Exponent=  2.1954348034D-01 Coefficients=  1.0000000000D+00
 D 1 1.00
     Exponent=  1.0000000000D+00 Coefficients=  1.0000000000D+00
 ****
 Centers:      15     16     17     18     27     28     29     33     34     35
 Centers:      36     37     38     69
 S 5 1.00
     Exponent=  2.2661767785D+03 Coefficients= -5.3431809926D-03
     Exponent=  3.4087010191D+02 Coefficients= -3.9890039230D-02
     Exponent=  7.7363135167D+01 Coefficients= -1.7853911985D-01
     Exponent=  2.1479644940D+01 Coefficients= -4.6427684959D-01
     Exponent=  6.6589433124D+00 Coefficients= -4.4309745172D-01
 S 1 1.00
     Exponent=  8.0975975668D-01 Coefficients=  1.0000000000D+00
 S 1 1.00
     Exponent=  2.5530772234D-01 Coefficients=  1.0000000000D+00
 P 3 1.00
     Exponent=  1.7721504317D+01 Coefficients=  4.3394573193D-02
     Exponent=  3.8635505440D+00 Coefficients=  2.3094120765D-01
     Exponent=  1.0480920883D+00 Coefficients=  5.1375311064D-01
 P 1 1.00
     Exponent=  2.7641544411D-01 Coefficients=  1.0000000000D+00
 D 1 1.00
     Exponent=  1.2000000000D+00 Coefficients=  1.0000000000D+00
 ****
 Centers:      42     43     44     45     46     47     48     49     50
 S 5 1.00
     Exponent=  2.8948325990D+03 Coefficients= -5.3408255515D-03
     Exponent=  4.3541939120D+02 Coefficients= -3.9904258866D-02
     Exponent=  9.8843328866D+01 Coefficients= -1.7912768038D-01
     Exponent=  2.7485198001D+01 Coefficients= -4.6758090825D-01
     Exponent=  8.5405498171D+00 Coefficients= -4.4653131020D-01
 S 1 1.00
     Exponent=  1.0654578038D+00 Coefficients=  1.0000000000D+00
 S 1 1.00
     Exponent=  3.3247346748D-01 Coefficients=  1.0000000000D+00
 P 3 1.00
     Exponent=  2.2696633924D+01 Coefficients= -4.5212874436D-02
     Exponent=  4.9872339257D+00 Coefficients= -2.3754317067D-01
     Exponent=  1.3491613954D+00 Coefficients= -5.1287353587D-01
 P 1 1.00
     Exponent=  3.4829881977D-01 Coefficients=  1.0000000000D+00
 D 1 1.00
     Exponent=  1.4000000000D+00 Coefficients=  1.0000000000D+00
 ****
 Centers:      30     31     32
 S 5 1.00
     Exponent=  9.1849303010D+03 Coefficients= -2.2294387756D-03
     Exponent=  1.3815105503D+03 Coefficients= -1.6683029937D-02
     Exponent=  3.1387147580D+02 Coefficients= -7.5262436116D-02
     Exponent=  8.8053870623D+01 Coefficients= -1.9376827038D-01
     Exponent=  2.7039914905D+01 Coefficients= -1.7718020803D-01
 S 3 1.00
     Exponent=  4.5648731303D+01 Coefficients= -1.0736062573D-01
     Exponent=  4.9664522326D+00 Coefficients=  6.5066293018D-01
     Exponent=  2.0116242047D+00 Coefficients=  5.9712155354D-01
 S 1 1.00
     Exponent=  3.5661077013D-01 Coefficients=  1.0000000000D+00
 S 1 1.00
     Exponent=  1.3507221477D-01 Coefficients=  1.0000000000D+00
 P 5 1.00
     Exponent=  2.6198233439D+02 Coefficients= -9.2729929822D-03
     Exponent=  6.1306894736D+01 Coefficients= -6.6547669241D-02
     Exponent=  1.9103729887D+01 Coefficients= -2.4828595903D-01
     Exponent=  6.6567720378D+00 Coefficients= -4.8703847402D-01
     Exponent=  2.3959635161D+00 Coefficients= -3.9337850312D-01
 P 1 1.00
     Exponent=  6.1776161679D-01 Coefficients=  1.0000000000D+00
 P 1 1.00
     Exponent=  1.6993376871D-01 Coefficients=  1.0000000000D+00
 D 1 1.00
     Exponent=  5.5000000000D-01 Coefficients=  1.0000000000D+00
 ****
 Centers:      68
 S 5 1.00
     Exponent=  9.5169767000D+04 Coefficients=  2.2000000000D-05
     Exponent=  1.5488403000D+04 Coefficients=  1.4500000000D-04
     Exponent=  3.7762335000D+03 Coefficients=  6.5100000000D-04
     Exponent=  1.0790501000D+03 Coefficients=  2.0380000000D-03
     Exponent=  2.6895380000D+02 Coefficients=  5.1270000000D-03
 S 1 1.00
     Exponent=  6.3467900000D+01 Coefficients=  1.0000000000D+00
 S 1 1.00
     Exponent=  4.5133200000D+01 Coefficients=  1.0000000000D+00
 S 1 1.00
     Exponent=  2.1456800000D+01 Coefficients=  1.0000000000D+00
 S 1 1.00
     Exponent=  5.3483000000D+00 Coefficients=  1.0000000000D+00
 S 1 1.00
     Exponent=  2.6778000000D+00 Coefficients=  1.0000000000D+00
 S 1 1.00
     Exponent=  1.0287000000D+00 Coefficients=  1.0000000000D+00
 S 1 1.00
     Exponent=  4.4080000000D-01 Coefficients=  1.0000000000D+00
 S 1 1.00
     Exponent=  7.9100000000D-02 Coefficients=  1.0000000000D+00
 S 1 1.00
     Exponent=  3.1300000000D-02 Coefficients=  1.0000000000D+00
 P 3 1.00
     Exponent=  1.2333733920D+01 Coefficients= -1.5313031066D-01
     Exponent=  1.1080331415D+01 Coefficients= -2.0300664852D-01
     Exponent=  2.0341747228D+00 Coefficients= -1.9458361263D-01
 P 6 1.00
     Exponent=  1.5005317313D+03 Coefficients= -1.0192569555D-03
     Exponent=  3.8239748937D+02 Coefficients= -5.9476212135D-03
     Exponent=  1.3299969628D+02 Coefficients= -1.6265160929D-02
     Exponent=  4.6110032419D+01 Coefficients= -3.5623845839D-02
     Exponent=  1.5583529011D+01 Coefficients=  2.3709171074D-01
     Exponent=  5.7856677022D+00 Coefficients= -3.0670977844D-01
 P 1 1.00
     Exponent=  3.7823361008D+00 Coefficients=  1.0000000000D+00
 P 1 1.00
     Exponent=  1.3682592248D+00 Coefficients=  1.0000000000D+00
 P 1 1.00
     Exponent=  5.7288205601D-01 Coefficients=  1.0000000000D+00
 P 1 1.00
     Exponent=  2.2793165135D-01 Coefficients=  1.0000000000D+00
 P 1 1.00
     Exponent=  8.1403917986D-02 Coefficients=  1.0000000000D+00
 P 1 1.00
     Exponent=  2.9091071778D-02 Coefficients=  1.0000000000D+00
 D 6 1.00
     Exponent=  4.8452750000D+02 Coefficients=  2.2860000000D-03
     Exponent=  1.4666550000D+02 Coefficients=  1.8629000000D-02
     Exponent=  5.6377900000D+01 Coefficients=  7.4088000000D-02
     Exponent=  2.3671100000D+01 Coefficients=  1.6155400000D-01
     Exponent=  9.4401000000D+00 Coefficients=  3.0809100000D-01
     Exponent=  4.3712000000D+00 Coefficients=  4.4833400000D-01
 D 1 1.00
     Exponent=  1.9580000000D+00 Coefficients=  1.0000000000D+00
 D 1 1.00
     Exponent=  7.2720000000D-01 Coefficients=  1.0000000000D+00
 D 1 1.00
     Exponent=  2.4600000000D-01 Coefficients=  1.0000000000D+00
 D 1 1.00
     Exponent=  7.4400000000D-02 Coefficients=  1.0000000000D+00
 F 5 1.00
     Exponent=  1.7515590000D+02 Coefficients=  4.1020000000D-03
     Exponent=  6.2890900000D+01 Coefficients=  3.9086000000D-02
     Exponent=  2.8362400000D+01 Coefficients=  1.4704400000D-01
     Exponent=  1.3247800000D+01 Coefficients=  2.7109200000D-01
     Exponent=  6.1440000000D+00 Coefficients=  3.4566500000D-01
 F 1 1.00
     Exponent=  2.7623000000D+00 Coefficients=  1.0000000000D+00
 F 1 1.00
     Exponent=  1.1574000000D+00 Coefficients=  1.0000000000D+00
 F 1 1.00
     Exponent=  4.2440000000D-01 Coefficients=  1.0000000000D+00
 G 1 1.00
     Exponent=  7.0090000000D-01 Coefficients=  1.0000000000D+00
 ****
 ======================================================================================================
                                       Pseudopotential Parameters
 ======================================================================================================
  Center     Atomic      Valence      Angular      Power
  Number     Number     Electrons     Momentum     of R      Exponent        Coefficient   SO-Coeffient
 ======================================================================================================
    1          6
                                   No pseudopotential on this center.
    2          6
                                   No pseudopotential on this center.
    3          6
                                   No pseudopotential on this center.
    4          6
                                   No pseudopotential on this center.
    5          6
                                   No pseudopotential on this center.
    6          6
                                   No pseudopotential on this center.
    7          6
                                   No pseudopotential on this center.
    8          6
                                   No pseudopotential on this center.
    9          6
                                   No pseudopotential on this center.
   10          1
                                   No pseudopotential on this center.
   11          1
                                   No pseudopotential on this center.
   12          1
                                   No pseudopotential on this center.
   13          1
                                   No pseudopotential on this center.
   14          1
                                   No pseudopotential on this center.
   15          8
                                   No pseudopotential on this center.
   16          8
                                   No pseudopotential on this center.
   17          8
                                   No pseudopotential on this center.
   18          8
                                   No pseudopotential on this center.
   19          6
                                   No pseudopotential on this center.
   20          6
                                   No pseudopotential on this center.
   21          1
                                   No pseudopotential on this center.
   22          1
                                   No pseudopotential on this center.
   23          1
                                   No pseudopotential on this center.
   24          1
                                   No pseudopotential on this center.
   25          1
                                   No pseudopotential on this center.
   26          1
                                   No pseudopotential on this center.
   27          8
                                   No pseudopotential on this center.
   28          8
                                   No pseudopotential on this center.
   29          8
                                   No pseudopotential on this center.
   30         16
                                   No pseudopotential on this center.
   31         16
                                   No pseudopotential on this center.
   32         16
                                   No pseudopotential on this center.
   33          8
                                   No pseudopotential on this center.
   34          8
                                   No pseudopotential on this center.
   35          8
                                   No pseudopotential on this center.
   36          8
                                   No pseudopotential on this center.
   37          8
                                   No pseudopotential on this center.
   38          8
                                   No pseudopotential on this center.
   39          6
                                   No pseudopotential on this center.
   40          6
                                   No pseudopotential on this center.
   41          6
                                   No pseudopotential on this center.
   42          9
                                   No pseudopotential on this center.
   43          9
                                   No pseudopotential on this center.
   44          9
                                   No pseudopotential on this center.
   45          9
                                   No pseudopotential on this center.
   46          9
                                   No pseudopotential on this center.
   47          9
                                   No pseudopotential on this center.
   48          9
                                   No pseudopotential on this center.
   49          9
                                   No pseudopotential on this center.
   50          9
                                   No pseudopotential on this center.
   51          6
                                   No pseudopotential on this center.
   52          1
                                   No pseudopotential on this center.
   53          6
                                   No pseudopotential on this center.
   54          6
                                   No pseudopotential on this center.
   55          6
                                   No pseudopotential on this center.
   56          6
                                   No pseudopotential on this center.
   57          6
                                   No pseudopotential on this center.
   58          6
                                   No pseudopotential on this center.
   59          1
                                   No pseudopotential on this center.
   60          1
                                   No pseudopotential on this center.
   61          1
                                   No pseudopotential on this center.
   62          7
                                   No pseudopotential on this center.
   63          7
                                   No pseudopotential on this center.
   64          7
                                   No pseudopotential on this center.
   65          7
                                   No pseudopotential on this center.
   66          6
                                   No pseudopotential on this center.
   67          1
                                   No pseudopotential on this center.
   68         71           43
                                      H and up 
                                                     2        1.0000000        0.00000000    0.00000000
                                      S - H
                                                     2       35.1620970      989.99558400    0.00000000
                                      P - H
                                                     2       19.4644020      278.86565200    0.00000000
                                      D - H
                                                     2       10.0068650       71.00917800    0.00000000
                                      F - H
                                                     2       23.5179320      -47.40589000    0.00000000
                                      G - H
                                                     2       29.4122380      -35.55714600    0.00000000
   69          8
                                   No pseudopotential on this center.
 ======================================================================================================
 Ernie: Thresh=  0.10000D-02 Tol=  0.10000D-05 Strict=F.
 There are   991 symmetry adapted cartesian basis functions of A   symmetry.
 There are   916 symmetry adapted basis functions of A   symmetry.
   916 basis functions,  1662 primitive gaussians,   991 cartesian basis functions
   230 alpha electrons      230 beta electrons
       nuclear repulsion energy     11911.1777138767 Hartrees.
 IExCor= 7252 DFT=T Ex+Corr=MN15 ExCW=0 ScaHFX=  0.440000
 ScaDFX=  1.000000  1.000000  1.000000  1.000000 ScalE2=  1.000000  1.000000
 IRadAn=      5 IRanWt=     -1 IRanGd=            0 ICorTp=0 IEmpDi=  4
 NAtoms=   69 NActive=   69 NUniq=   69 SFac= 1.00D+00 NAtFMM=   60 NAOKFM=T Big=T
 Integral buffers will be    131072 words long.
 Raffenetti 2 integral format.
 Two-electron integral symmetry is turned on.
 ------------------------------------------------------------------------------
 Polarizable Continuum Model (PCM)
 =================================
 Model                : PCM.
 Atomic radii         : SMD-Coulomb.
 Polarization charges : Total charges.
 Charge compensation  : None.
 Solution method      : On-the-fly selection.
 Cavity type          : VdW (van der Waals Surface) (Alpha=1.000).
 Cavity algorithm     : GePol (No added spheres)
                        Default sphere list used, NSphG=   69.
                        Lebedev-Laikov grids with approx.  5.0 points / Ang**2.
                        Smoothing algorithm: York/Karplus (Gamma=1.0000).
                        Polarization charges: spherical gaussians, with
                                              point-specific exponents (IZeta= 3).
                        Self-potential: point-specific (ISelfS= 7).
                        Self-field    : sphere-specific E.n sum rule (ISelfD= 2).
 1st derivatives      : Analytical E(r).r(x)/FMM algorithm (CHGder, D1EAlg=3).
                        Cavity 1st derivative terms included.
 Solvent              : DiChloroEthane, Eps=  10.125000 Eps(inf)=   2.087447
 ------------------------------------------------------------------------------
 GePol: Number of generator spheres                  =      69
 GePol: Total number of spheres                      =      69
 GePol: Number of exposed spheres                    =      69 (100.00%)
 GePol: Number of points                             =    4919
 GePol: Average weight of points                     =       0.13
 GePol: Minimum weight of points                     =   0.24D-10
 GePol: Maximum weight of points                     =    0.21501
 GePol: Number of points with low weight             =     314
 GePol: Fraction of low-weight points (<1% of avg)   =       6.38%
 GePol: Cavity surface area                          =    615.532 Ang**2
 GePol: Cavity volume                                =    773.715 Ang**3
 ------------------------------------------------------------------------------
 Atomic radii for non-electrostatic terms: SMD-CDS.
 ------------------------------------------------------------------------------
 PCM non-electrostatic energy =         0.0045389333 Hartrees.
 Nuclear repulsion after PCM non-electrostatic terms =    11911.1822528100 Hartrees.
 Leave Link  301 at Wed Apr 30 13:37:32 2025, MaxMem= 12348030976 cpu:             240.3 elap:              12.1
 (Enter /sysapps/ubuntu-applications/gaussian-new/avx/g16/l302.exe)
 NPDir=0 NMtPBC=     1 NCelOv=     1 NCel=       1 NClECP=     1 NCelD=      1
         NCelK=      1 NCelE2=     1 NClLst=     1 CellRange=     0.0.
 One-electron integrals computed using PRISM.
 One-electron integral symmetry used in STVInt
   1 Symmetry operations used in ECPInt.
 ECPInt:  NShTT=   77815 NPrTT=  297642 LenC2=   61095 LenP2D=  141967.
 LDataN:  DoStor=T MaxTD1= 9 Len=  602
 NBasis=   916 RedAO= T EigKep=  2.79D-04  NBF=   916
 NBsUse=   916 1.00D-06 EigRej= -1.00D+00 NBFU=   916
 Precomputing XC quadrature grid using
 IXCGrd= 4 IRadAn=           5 IRanWt=          -1 IRanGd=           0 AccXCQ= 0.00D+00.
 Defaulting to unpruned grid for atomic number  71.
 Generated NRdTot=       0 NPtTot=           0 NUsed=           0 NTot=          32
[...]
 795,-0.00066651,-0.01055781,-0.00103358,0.01895736,0.00506756,0.002893
 14,0.00343099,-0.00797156,-0.04593127,0.02846266,0.00203341,0.04257340
 ,0.00000739,-0.00001052,0.00000344,-0.00000045,-0.00002048,-0.00000042
 ,-0.00000514,-0.00001599,-0.00000032,0.00000142,0.00000052,0.00000486,
 0.00000068,0.00000263,-0.00000298,0.00000300,0.00000008,0.00000325,0.0
 0003164,0.00000695,-0.00001721,-0.00000375,-0.00002247,-0.00004832,0.0
 0017978,0.00017864,-0.00008560,-0.00001026,0.00001309,0.00000080,-0.00
 000208,0.00000383,0.00000080,0.00000187,0.00000004,-0.00000165,-0.0000
 0021,-0.00000252,-0.00000326,-0.00000048,0.00000109,0.00000233,-0.0001
 3175,-0.00003202,0.00000634,-0.00000664,-0.00000512,0.00000892,-0.0000
 0227,0.00002548,0.00001205,-0.00016239,0.00023448,-0.00029093,0.000009
 74,-0.00000735,0.00000127,-0.00014783,-0.00020159,0.00013014,0.0000006
 6,0.00000159,-0.00000098,-0.00001137,-0.00000204,0.00000826,-0.0000035
 2,0.00000333,0.00000099,0.00011792,-0.00016429,-0.00015301,0.00005950,
 -0.00005300,-0.00000861,0.00006070,-0.00010138,-0.00003323,-0.00001513
 ,-0.00000276,-0.00001659,-0.00002051,-0.00002049,0.00000143,-0.0000074
 5,-0.00001593,0.00000330,0.00001213,0.00002022,-0.00000234,0.00001275,
 0.00000422,0.00002436,0.00008415,0.00003519,0.00000921,-0.00000257,-0.
 00001046,0.00000271,-0.00000545,-0.00000888,-0.00000132,-0.00001127,-0
 .00000100,-0.00001300,-0.00000226,-0.00000232,-0.00000985,-0.00005606,
 -0.00001115,-0.00000644,-0.00004375,-0.00001469,-0.00000802,0.00002663
 ,-0.00001366,0.00002586,0.00000655,-0.00000433,0.00001013,0.00000480,0
 .00001256,-0.00000147,-0.00000517,0.00000583,-0.00000534,-0.00000857,0
 .00000234,-0.00001849,-0.00001445,0.00000351,-0.00000070,-0.00000176,-
 0.00000092,-0.00000519,-0.00000207,0.00000485,-0.00000473,-0.00000337,
 -0.00000049,-0.00000152,-0.00000384,-0.00000572,-0.00000068,-0.0000015
 1,-0.00000402,0.00000328,0.00000004,-0.00000347,-0.00000047,-0.0000044
 4,0.00002884,0.00000660,0.00000227,0.00001274,0.00000008,0.00187989,-0
 .00197616,-0.00032837,-0.00049228,0.00009089,-0.00069186,0.00006347,-0
 .00009777,0.00081797,-0.00015411,0.00136944,0.00375354,-0.00077114,-0.
 00003697,0.00055979,0.00077623,0.00180967,0.00230653,-0.00089950,-0.00
 128313,-0.00026475,-0.00015058,-0.00045376,-0.00021511,-0.00018760,-0.
 00001504,0.00014134,0.00025919,-0.00019747,0.00039985,0.00035854,-0.00
 018589,-0.00035867,0.00990684,0.00331162,-0.01800220,-0.00133096,0.004
 01974,0.00104971,0.13491661,0.03132422,-0.27696128,-0.14413727,-0.0375
 2971,0.28826404,-0.00029789,-0.00027139,0.00080377,-0.00006148,-0.0001
 6270,-0.00072224,0.00013773,0.00001409,-0.00010407,0.00022931,0.000038
 06,-0.00025544,0.00016536,0.00005686,0.00018972,0.00032301,-0.00013338
 ,-0.00017058,0.00073233,-0.00048450,-0.00055205,-0.03789305,0.00183893
 ,-0.01494276,-0.04088016,-0.01158688,0.00878817,-0.00005575,-0.0000235
 7,0.00005971,0.00013310,0.00003384,-0.00005551,0.00007466,0.00000530,-
 0.00005177,0.00002272,0.00000594,-0.00013629,0.00003829,0.00024613,0.0
 0049662,-0.01452414,-0.00383597,0.01639243,-0.01045578,-0.00513858,-0.
 01378842,0.01106176,0.00055300,0.01460175,0.01293046,0.01114538,-0.011
 14642,0.00138816,-0.00108924,-0.00578625,0.00095818,-0.00314138,0.0055
 0604,0.00006642,0.00006906,0.00044289,-0.00033103,-0.00011077,0.000477
 82,-0.00037277,0.00024886,0.00039444,0.00008727,0.00023246,-0.00037802
 ,-0.00039664,0.00038959,-0.00047865,-0.00029476,0.00014055,-0.00055862
 ,-0.01064819,0.00178209,-0.00355656,-0.02625612,-0.00346269,0.01407562
 ,-0.02098554,0.00669566,0.01029139,0.02479465,0.00711640,-0.01932374,-
 0.03004078,-0.00218881,-0.05165475,0.02446207,0.03644129,0.00055790,-0
 .01645163,0.00169156,0.00765923,-0.00506879,-0.00331015,0.00221330,-0.
 01170308,-0.00884404,0.00516401,0.00410786,0.00287781,0.01236243,-0.01
 779983,-0.00731208,0.00480648,-0.00461516,-0.00713163,-0.00302400,-0.0
 0523990,0.00474013,0.00205619,-0.01351382,0.00316456,-0.00206830,-0.00
 050605,0.00517038,0.00103009,0.00080534,-0.00438209,0.00031302,0.00069
 822,-0.00183613,-0.00066498,0.00046764,-0.00055430,-0.00054380,0.00332
 491,-0.00056473,0.00126531,0.00400334,-0.00421380,0.00238899,0.0055484
 7,0.00129298,0.00042037,-0.00079971,-0.00246466,0.00004210,-0.00002795
 ,-0.00195395,0.00184038,-0.00076672,-0.00031088,-0.00021532,-0.0025122
 2,0.00044647,0.00070190,0.00032735,-0.00023821,-0.00014192,-0.00053692
 ,0.00067291,0.00021358,-0.00017419,-0.00055862,0.00011375,-0.00029257,
 -0.00031263,-0.00017088,0.00035157,-0.00021895,-0.00025906,0.00028986,
 -0.00045472,-0.00052755,0.00005337,-0.00028279,0.00024790,0.00004323,0
 .00002266,-0.00000481,0.00022706,0.00001165,0.00007501,0.00008298,0.00
 024572,-0.00002375,0.00033367,0.00050705,-0.00013928,0.00023064,0.0003
 3552,0.00006591,0.00039102,-0.00068813,0.00045921,0.00011248,0.0007875
 8,0.00021826,-0.00018706,0.00004329,-0.00038457,-0.00007873,-0.0001498
 8,0.00005210,0.17287742,-0.00017771,-0.00029546,-0.00000768,-0.0000470
 2,-0.00003681,0.00004665,-0.00001824,-0.00001355,-0.00003764,0.0000130
 9,0.00000004,0.00000556,-0.00002440,-0.00004782,0.00002869,0.00009672,
 0.00002194,-0.00001971,0.00192819,0.00251041,-0.00008555,-0.00498075,0
 .00211131,-0.00119251,-0.00916140,-0.00100356,0.00077279,-0.00002015,0
 .00002979,-0.00000200,-0.00000784,0.00001089,0.00000072,-0.00000390,0.
 00000939,-0.00000091,0.00000868,0.00001939,-0.00001656,-0.00000457,0.0
 0010380,-0.00000964,-0.00263058,-0.01097706,0.00439268,-0.00187428,-0.
 01043451,-0.00208313,0.00258189,0.00120845,0.00201727,0.00247765,0.003
 18002,-0.00136107,0.00020038,0.00024298,-0.00076626,-0.00001197,-0.000
 47168,0.00119454,0.00001778,-0.00004062,0.00004821,-0.00010819,-0.0002
 1705,0.00000283,-0.00013816,0.00008942,0.00021009,0.00007082,-0.000000
 49,-0.00005926,-0.00010729,0.00005077,-0.00011996,-0.00006790,-0.00008
 922,-0.00005682,-0.00218453,-0.02337146,0.01035411,0.00415573,-0.01419
 351,-0.00473495,0.01117990,-0.02001948,-0.01016435,-0.00092322,-0.0713
 8447,0.02400928,0.00244479,0.03589201,-0.02192283,0.02868741,-0.044913
 12,-0.04569259,-0.00350632,-0.00839152,0.00377959,0.00388123,0.0130196
 4,-0.00135955,-0.00490913,-0.02578334,0.00798967,-0.00115351,-0.005326
 31,0.00296410,-0.01045802,-0.01063104,0.00913973,-0.00156846,0.0078719
 6,0.01161683,0.00983397,-0.01019814,0.00540471,-0.00163413,0.00060346,
 0.00500024,0.01342585,-0.00461143,0.00995837,-0.00136931,0.00571773,-0
 .00112768,-0.00234223,0.00189708,-0.00166954,-0.00679775,0.00232028,0.
 00052970,-0.00024243,-0.00133595,-0.00224207,0.00175819,-0.00233811,0.
 00024169,-0.00108857,-0.00062718,-0.00055757,-0.00405755,-0.00122152,-
 0.00320828,-0.00199860,0.00422379,-0.00617285,-0.00552403,0.00359383,-
 0.00074428,0.00009484,0.00079050,0.00026542,-0.00007673,-0.00012159,-0
 .00003201,0.00147546,-0.00073512,-0.00013010,-0.00040806,0.00050824,-0
 .00082892,-0.00040460,-0.00018958,0.00080956,-0.00038957,0.00016924,0.
 00081813,-0.00011251,-0.00074739,0.00014795,0.00007529,0.00004013,-0.0
 0089585,-0.00003711,-0.00007699,0.00002804,-0.00040992,-0.00000514,-0.
 00046429,-0.00017330,-0.00063271,-0.00002405,0.00038399,-0.00037963,0.
 00046612,0.00030991,0.00007452,-0.00050785,-0.00216324,0.00101019,-0.0
 0036267,0.00001933,0.00050448,-0.00012786,0.00072098,-0.00057425,0.000
 66774,-0.00000508,-0.00008217,0.00003953,-0.01093088,0.18653826,0.0000
 9137,-0.00031246,0.00014451,0.00005871,-0.00002014,-0.00011748,-0.0000
 5026,0.00002138,-0.00001063,0.00002156,-0.00002375,-0.00006044,-0.0000
 0723,0.00007751,-0.00011511,0.00024511,0.00008018,0.00003773,0.0004960
 3,-0.00154014,0.00220125,-0.03000905,0.00401347,-0.00470316,0.02495207
 ,0.00315922,0.00107610,-0.00003825,-0.00001652,0.00000121,-0.00000024,
 -0.00000043,-0.00000857,-0.00000346,-0.00001273,0.00000088,0.00003316,
 -0.00001470,-0.00003427,-0.00003340,-0.00014474,-0.00003720,0.00664844
 ,0.00437020,-0.02096977,-0.00321747,-0.00370848,-0.02031325,0.00986819
 ,-0.00063411,0.00892551,-0.00938220,-0.00509041,0.00529261,0.00056304,
 -0.00068496,-0.00372989,-0.00026563,0.00175365,-0.00253778,0.00015972,
 0.00002614,0.00019148,-0.00038931,-0.00028502,0.00017674,-0.00031263,0
 .00031443,0.00007487,-0.00012230,-0.00006354,0.00011679,0.00030726,-0.
 00028978,0.00016285,0.00025313,0.00014609,0.00019266,-0.00113664,0.015
 42259,-0.02613016,0.01771918,-0.00094104,-0.02500789,0.00807342,-0.001
 99027,-0.01886976,-0.01732008,0.02787303,0.03123934,-0.04477558,-0.023
 30521,-0.02383504,-0.00483495,-0.03929087,0.00253713,0.00875531,-0.002
 29483,-0.02575900,0.00092886,-0.00575646,-0.00562300,0.00206014,0.0025
 2553,-0.01075291,0.00535110,0.00524374,0.00605309,0.00342015,0.0047098
 9,-0.01262440,0.00184713,0.00566797,0.00071528,0.00692409,-0.00115361,
 0.00635514,-0.00978206,0.00734256,0.00436588,-0.00073131,0.00408134,-0
 .00394396,-0.00148805,0.00339678,-0.00137295,-0.00153796,-0.00053849,-
 0.00409890,-0.00167067,0.00063021,-0.00063432,0.00212068,-0.00220986,-
 0.00364093,0.00273353,-0.00266622,0.00053651,0.00597428,0.00039071,-0.
 00042706,0.00008781,-0.00193344,0.00021689,-0.00027752,-0.00063274,0.0
 0050114,0.00308237,-0.00250318,-0.00019944,-0.00019448,0.00040356,-0.0
 0192646,-0.00046622,0.00043549,0.00011566,0.00049720,-0.00030711,-0.00
 025773,0.00007986,-0.00023523,0.00024737,-0.00018091,0.00011934,0.0007
 5181,-0.00017378,0.00010128,0.00026920,0.00007404,-0.00055610,0.000237
 08,-0.00005382,0.00003585,-0.00038282,0.00000523,0.00003429,0.00000977
 ,-0.00015415,-0.00001370,-0.00022588,-0.00007745,-0.00025118,0.0000292
 3,0.00018429,0.00021081,-0.00022212,0.00002988,-0.00008917,-0.00050662
 ,-0.00091538,0.00032775,0.00021441,0.00023242,0.00063570,-0.00003453,0
 .00004525,-0.00007312,0.00011979,0.00005630,0.00006055,0.00000178,0.01
 539124,0.00595356,0.14738229,-0.02728746,-0.02479829,0.00120795,0.0002
 9088,-0.00121395,0.00589645,-0.00182694,0.00099844,-0.00080263,0.00012
 400,-0.00007484,0.00012199,-0.00054603,0.00048259,0.00026134,0.0002120
 4,0.00144321,-0.00462517,-0.01353971,0.00774988,-0.00125285,0.00026897
 ,0.02717226,0.00806174,-0.00197457,0.02273528,0.00161122,0.00058475,-0
 .00040818,-0.00008390,-0.00042127,0.00010656,0.00038514,0.00001818,-0.
 00013176,0.00014357,-0.00004339,-0.00008594,0.00019077,0.00099820,-0.0
 0034321,0.00049295,0.00204815,-0.00444181,-0.00018027,0.00074392,-0.00
 611073,-0.00056142,0.00005715,-0.00081770,0.00042140,0.00059627,0.0002
 3986,-0.00207166,-0.00004027,-0.00101663,0.00003413,0.00022025,-0.0004
 0958,-0.00017974,-0.00002056,0.00001704,0.00008811,-0.00003497,0.00001
 978,-0.00015181,0.00009116,0.00010881,0.00016810,-0.00005319,0.0000484
 4,-0.00011899,0.00001848,0.00018914,-0.00009261,-0.00001934,-0.0000246
 7,0.00003229,-0.00032608,0.00007883,-0.00027927,-0.00018784,0.00043371
 ,0.00020472,-0.00645624,-0.00114337,0.00049073,0.00309260,0.00209095,-
 0.00254603,0.00042363,-0.00010288,0.00058146,0.00014031,-0.00057596,-0
 .00043983,-0.00084888,0.00035109,0.00089163,-0.00075012,-0.00105607,0.
 00017945,-0.00053032,0.00015530,-0.00040108,-0.00009808,-0.00002799,-0
 .00019530,-0.00025747,0.00048867,0.00021078,0.00003832,0.00016964,0.00
 016036,0.00015354,-0.00019753,0.00007547,0.00028025,-0.00010252,-0.000
 01943,0.00149627,0.00270856,-0.00144735,-0.00001683,0.00013206,-0.0000
 2078,-0.00003569,0.00004263,-0.00002072,-0.00010299,0.00004083,0.00001
 150,-0.00006889,0.00003176,0.00002044,-0.00008997,0.00010648,-0.000050
 31,-0.00012248,-0.00002489,-0.00000019,-0.00177925,-0.00122671,0.00197
 995,-0.00032043,-0.00083764,0.00086132,-0.00041221,-0.00087669,0.00037
 676,-0.17536034,-0.07397637,-0.02186214,-0.01634657,-0.01819396,-0.001
 64524,0.00028723,-0.00076314,0.00007671,-0.00012524,0.00061748,-0.0003
 1918,0.00012191,0.00000636,-0.00012671,-0.00024034,0.00007960,0.000141
 90,0.00013818,-0.00020852,0.00010941,0.00009953,0.00002915,-0.00026886
 ,-0.00000195,-0.00000629,0.00000331,-0.00000013,-0.00000671,-0.0000148
 2,-0.00000561,-0.00000243,0.00000001,0.00009257,-0.00070074,0.00010225
 ,0.00001159,-0.00012090,0.00011341,-0.00106441,0.00058408,0.00013780,0
 .00010448,0.00026301,-0.00011846,0.00037880,-0.00028738,0.00023166,-0.
 00000740,0.00000344,-0.00001531,0.00188650,-0.00158894,0.00023090,0.23
 634540,-0.00152820,-0.00046934,0.00230345,0.00001421,-0.00040620,0.001
 06760,0.00043035,0.00041481,-0.00099808,0.00042526,0.00019006,0.001005
 51,-0.00080278,-0.00001404,0.00062348,-0.00101510,0.00073906,-0.002658
 68,0.04092307,-0.25941375,-0.02558302,0.00266004,-0.02669561,-0.006420
 50,-0.00243179,-0.02876613,-0.00308314,0.00010455,-0.00005045,-0.00016
 866,-0.00007926,-0.00004056,0.00005171,0.00005649,-0.00002963,0.000049
 34,-0.00004776,-0.00001584,0.00010404,0.00076345,-0.00007400,0.0007446
 1,0.00322611,0.00379390,0.00303524,0.00459233,0.00199318,-0.00284880,0
 .00139738,0.00055989,-0.00394708,0.00208503,-0.00286129,0.00560136,0.0
 0020435,0.00135849,-0.00009233,-0.00064288,0.00142869,-0.00023054,0.00
 005252,-0.00002397,-0.00017205,-0.00004386,0.00005324,0.00010576,0.000
 07827,-0.00024673,-0.00051578,0.00006961,-0.00009448,0.00026129,0.0000
 7308,-0.00036797,0.00041514,0.00007579,-0.00002085,-0.00002751,0.00022
 042,0.00018430,0.00002952,0.00015378,0.00019374,0.00000812,-0.00322036
 ,0.00008936,0.00030872,0.00325983,0.00073565,-0.00183348,-0.00011434,-
 0.00042505,0.00018068,-0.00053086,-0.00008873,0.00024728,-0.00087180,0
 .00112353,0.00069659,-0.00077348,-0.00064327,0.00007281,-0.00014563,0.
 00030302,-0.00016755,-0.00000374,0.00007511,-0.00002185,0.00039620,-0.
 00000527,-0.00014249,0.00012382,0.00000941,-0.00005289,-0.00012605,0.0
 0006231,-0.00006556,0.00003161,-0.00003223,-0.00003531,0.00281685,0.00
 217406,-0.00181169,0.00002085,-0.00002406,0.00000805,0.00003447,-0.000
 00845,0.00003228,0.00010278,-0.00001853,-0.00001486,-0.00000160,0.0000
 1813,0.00002466,-0.00002607,0.00004983,-0.00001869,0.00001751,0.000015
 64,0.00000456,-0.00172518,-0.00086662,0.00130049,-0.00053898,-0.000803
 32,0.00094732,-0.00159606,-0.00143117,0.00091368,-0.11948159,-0.099595
 62,-0.01451222,0.00006098,0.00383875,-0.00177819,0.00012195,-0.0009737
 1,-0.00024511,0.00020826,0.00052859,0.00010801,0.00031651,0.00026479,-
 0.00024686,-0.00026588,0.00009708,0.00011917,0.00003189,-0.00007470,0.
 00019374,0.00009586,0.00005082,-0.00023607,-0.00000299,-0.00000237,0.0
 0000012,-0.00000482,-0.00001519,0.00000352,0.00000159,0.00001221,0.000
 00679,-0.00003328,-0.00035349,0.00014627,-0.00015068,-0.00020021,0.000
 19435,-0.00092199,0.00073679,0.00004068,0.00007027,0.00000507,-0.00015
 928,0.00033119,-0.00016401,0.00025551,0.00001918,0.00005300,-0.0000322
 0,-0.00072066,-0.00284497,0.00001892,0.07217999,0.40700932,0.01534475,
 0.02212070,0.00881601,0.00157248,-0.00032647,-0.00370705,0.00117318,-0
 .00045465,0.00054434,0.00039093,0.00013130,-0.00035659,0.00123986,0.00
 035530,0.00134195,-0.00124979,-0.00025580,-0.00128782,0.00418440,-0.02
 374910,-0.05079950,-0.00805648,-0.03373321,0.00061861,0.00624266,0.026
 23504,0.01053714,0.00015798,0.00020769,-0.00001893,0.00019681,-0.00000
 258,-0.00019148,0.00010804,0.00003296,-0.00002211,-0.00011904,-0.00002
 696,0.00003207,0.00178785,0.00071664,-0.00000916,0.00128993,-0.0042276
 1,0.00045637,0.00199888,0.00427681,0.00062496,0.00028096,0.00192673,-0
 .00171962,-0.00040977,-0.00003939,-0.00300078,0.00041557,0.00269718,0.
 00065991,0.00047009,-0.00204633,-0.00081788,-0.00000650,0.00000950,-0.
 00011256,-0.00005251,-0.00002452,0.00022343,-0.00002218,-0.00024034,-0
 .00071034,-0.00001963,-0.00000178,-0.00011567,0.00000064,0.00040324,-0
 .00039607,-0.00003435,-0.00008545,0.00031233,-0.00001020,0.00000313,0.
 00011975,0.00009507,-0.00006780,0.00003147,-0.00084100,-0.00036755,0.0
 0069890,-0.00017229,0.00017844,-0.00119427,0.00001475,0.00001577,-0.00
 017906,-0.00022602,0.00016679,0.00003919,0.00017138,0.00014043,0.00034
 784,0.00019350,0.00011108,0.00028651,0.00007300,0.00001787,0.00012650,
 -0.00001439,0.00001913,0.00006274,0.00020052,-0.00016195,0.00009077,0.
 00004434,-0.00003542,0.00001046,-0.00007698,0.00007060,-0.00008986,-0.
 00000658,-0.00001166,-0.00004078,-0.00135748,-0.00225025,-0.00090622,0
 .00001179,-0.00004434,0.00001819,0.00002420,-0.00000980,0.00004888,0.0
 0004663,-0.00001778,0.00000627,0.00000074,0.00001151,0.00003223,0.0000
 0482,-0.00000948,0.00001449,0.00000116,0.00000295,0.00000767,0.0026600
 3,0.00157702,-0.00155105,0.00034489,0.00052181,-0.00014886,-0.00001301
 ,0.00053585,0.00027850,-0.02590798,-0.01330689,-0.06873125,-0.01502523
 ,-0.02734855,0.00565143,0.00007105,0.00005400,0.00011453,-0.00033758,0
 .00045441,-0.00072309,0.00013397,-0.00007910,-0.00031793,-0.00005831,0
 .00001368,0.00004288,-0.00005310,0.00005112,0.00007391,0.00003514,0.00
 002228,-0.00002788,-0.00000130,-0.00000639,-0.00000151,-0.00001187,-0.
 00000554,0.00000251,0.00000021,-0.00000020,0.00000166,-0.00010928,-0.0
 0088788,0.00025382,-0.00006863,0.00008998,0.00020087,-0.00006531,0.000
 14549,-0.00008808,-0.00004635,-0.00012889,-0.00008078,0.00013857,-0.00
 012183,0.00006913,-0.00000191,-0.00001576,-0.00000003,-0.00034870,-0.0
 0011525,-0.00138057,0.01360299,0.04689010,0.10592856\\0.00000758,-0.00
 000120,0.00000099,-0.00000357,-0.00000074,0.00000599,0.00000124,-0.000
 00069,-0.00000056,0.00000094,-0.00000571,0.00000311,-0.00000505,-0.000
 00812,0.00000539,0.00000104,-0.00000870,0.00000430,-0.00000823,0.00000
 492,0.00000573,0.00000072,-0.00000162,-0.00000741,-0.00000937,-0.00000
 298,0.00000567,0.00000134,0.00000313,-0.00000131,-0.00000048,-0.000001
 08,-0.00000053,-0.00000086,-0.00000869,0.00000159,0.00000057,-0.000011
 10,0.00000474,-0.00000043,-0.00000559,0.00000698,0.00000731,-0.0000146
 0,0.00000020,-0.00000862,0.00001753,0.00000446,0.00000727,0.00001960,0
 .00000912,0.00000475,0.00000052,-0.00000522,0.00000477,0.00000456,-0.0
 0000065,-0.00000420,-0.00001203,-0.00000375,0.00000212,0.00001515,-0.0
 0000015,0.00000394,0.00000966,-0.00000370,-0.00000092,0.00001512,0.000
 00268,-0.00000199,-0.00000948,-0.00000518,-0.00000226,-0.00000964,-0.0
 0000169,-0.00000319,-0.00000847,-0.00000532,0.00000137,-0.00000696,-0.
 00000057,0.00000678,0.00001077,0.00000290,-0.00000496,-0.00001094,0.00
 001462,0.00002175,0.00000813,0.00000295,0.00000069,0.00000210,-0.00000
 037,-0.00000845,-0.00000590,-0.00000314,0.00001014,-0.00000370,0.00001
 233,-0.00000115,-0.00000025,0.00001233,0.00000040,0.00000151,0.0000132
 8,0.00000093,-0.00001390,0.00000922,-0.00000027,0.00000111,-0.00001576
 ,-0.00000228,0.00000813,-0.00000361,-0.00000855,-0.00000853,-0.0000028
 1,-0.00000089,-0.00000817,0.00000073,-0.00000595,0.00000142,0.00000785
 ,0.00000299,0.00000487,-0.00001067,-0.00000047,-0.00000060,-0.00000483
 ,0.00000452,0.00000363,-0.00000985,-0.00000096,-0.00000668,0.00000546,
 -0.00000089,-0.00001204,0.00000188,0.00000002,-0.00000849,0.00000777,0
 .00000543,0.00001436,0.00001357,0.00000238,0.00000919,0.00001654,0.000
 00491,0.00000480,0.00001744,-0.00000818,-0.00000709,-0.00000310,-0.000
 00622,0.00000220,0.00000025,-0.00000104,0.00000145,-0.00000589,0.00000
 486,0.00001339,-0.00000827,-0.00000214,-0.00000220,-0.00000178,-0.0000
 1013,0.00000165,-0.00000879,-0.00000426,0.00000122,-0.00000592,-0.0000
 0263,0.00000042,-0.00001582,-0.00000282,-0.00000275,-0.00001483,-0.000
 00233,0.00001303,-0.00000954,-0.00000244,0.00000579,-0.00001324,0.0000
 0370,0.00001346,0.00000028,-0.00000013,-0.00000458,-0.00001242,-0.0000
 1184,0.00000211,-0.00000379,0.00000424,0.00000736,-0.00002072,0.000009
 52,-0.00000648,-0.00000952,-0.00000287,-0.00000508,-0.00001355,-0.0000
 0012,-0.00000091,0.00002712,0.00001290,0.00000342,0.00000680\\\@


 There ain't no surer way to find out whether you
 like people or hate them than to travel with them.
                                     -- Mark Twain
 Job cpu time:       5 days 13 hours 11 minutes 40.1 seconds.
 Elapsed time:       0 days  6 hours 23 minutes 46.7 seconds.
 File lengths (MBytes):  RWF=  13920 Int=      0 D2E=      0 Chk=    120 Scr=      8
 Normal termination of Gaussian 16 at Wed Apr 30 21:28:44 2025.
