 Entering Gaussian System, Link 0=/sysapps/ubuntu-applications/gaussian-new/avx/g16//g16
 Input=i2.in
 Output=i2.log
 Initial command:
 /sysapps/ubuntu-applications/gaussian-new/avx/g16/l1.exe "/data/temp-scratch/selhajj1/7597847/Gau-2490369.inp" -scrdir="/data/temp-scratch/selhajj1/7597847/"
 Entering Link 1 = /sysapps/ubuntu-applications/gaussian-new/avx/g16/l1.exe PID=   2490371.
  
 Copyright (c) 1988,1990,1992,1993,1995,1998,2003,2009,2016,
            Gaussian, Inc.  All Rights Reserved.
  
 This is part of the Gaussian(R) 16 program.  It is based on
 the Gaussian(R) 09 system (copyright 2009, Gaussian, Inc.),
 the Gaussian(R) 03 system (copyright 2003, Gaussian, Inc.),
 the Gaussian(R) 98 system (copyright 1998, Gaussian, Inc.),
 the Gaussian(R) 94 system (copyright 1995, Gaussian, Inc.),
 the Gaussian 92(TM) system (copyright 1992, Gaussian, Inc.),
 the Gaussian 90(TM) system (copyright 1990, Gaussian, Inc.),
 the Gaussian 88(TM) system (copyright 1988, Gaussian, Inc.),
 the Gaussian 86(TM) system (copyright 1986, Carnegie Mellon
 University), and the Gaussian 82(TM) system (copyright 1983,
 Carnegie Mellon University). Gaussian is a federally registered
 trademark of Gaussian, Inc.
  
 This software contains proprietary and confidential information,
 including trade secrets, belonging to Gaussian, Inc.
  
 This software is provided under written license and may be
 used, copied, transmitted, or stored only in accord with that
 written license.
  
 The following legend is applicable only to US Government
 contracts under FAR:
  
                    RESTRICTED RIGHTS LEGEND
  
 Use, reproduction and disclosure by the US Government is
 subject to restrictions as set forth in subparagraphs (a)
 and (c) of the Commercial Computer Software - Restricted
 Rights clause in FAR 52.227-19.
  
 Gaussian, Inc.
 340 Quinnipiac St., Bldg. 40, Wallingford CT 06492
  
  
 ---------------------------------------------------------------
 Warning -- This program may not be used in any manner that
 competes with the business of Gaussian, Inc. or will provide
 assistance to any competitor of Gaussian, Inc.  The licensee
 of this program is prohibited from giving any competitor of
 Gaussian, Inc. access to this program.  By using this program,
 the user acknowledges that Gaussian, Inc. is engaged in the
 business of creating and licensing software in the field of
 computational chemistry and represents and warrants to the
 licensee that it is not a competitor of Gaussian, Inc. and that
 it will not use this program in any manner prohibited above.
 ---------------------------------------------------------------
  

 Cite this work as:
 Gaussian 16, Revision A.03,
 M. J. Frisch, G. W. Trucks, H. B. Schlegel, G. E. Scuseria, 
 M. A. Robb, J. R. Cheeseman, G. Scalmani, V. Barone, 
 G. A. Petersson, H. Nakatsuji, X. Li, M. Caricato, A. V. Marenich, 
 J. Bloino, B. G. Janesko, R. Gomperts, B. Mennucci, H. P. Hratchian, 
 J. V. Ortiz, A. F. Izmaylov, J. L. Sonnenberg, D. Williams-Young, 
 F. Ding, F. Lipparini, F. Egidi, J. Goings, B. Peng, A. Petrone, 
 T. Henderson, D. Ranasinghe, V. G. Zakrzewski, J. Gao, N. Rega, 
 G. Zheng, W. Liang, M. Hada, M. Ehara, K. Toyota, R. Fukuda, 
 J. Hasegawa, M. Ishida, T. Nakajima, Y. Honda, O. Kitao, H. Nakai, 
 T. Vreven, K. Throssell, J. A. Montgomery, Jr., J. E. Peralta, 
 F. Ogliaro, M. J. Bearpark, J. J. Heyd, E. N. Brothers, K. N. Kudin, 
 V. N. Staroverov, T. A. Keith, R. Kobayashi, J. Normand, 
 K. Raghavachari, A. P. Rendell, J. C. Burant, S. S. Iyengar, 
 J. Tomasi, M. Cossi, J. M. Millam, M. Klene, C. Adamo, R. Cammi, 
 J. W. Ochterski, R. L. Martin, K. Morokuma, O. Farkas, 
 J. B. Foresman, and D. J. Fox, Gaussian, Inc., Wallingford CT, 2016.
 
 ******************************************
 Gaussian 16:  ES64L-G16RevA.03 25-Dec-2016
                19-Feb-2025 
 ******************************************
 %chk=i2.chk
 %mem=616Gb
 %nprocshared=24
 Will use up to   24 processors via shared memory.
 ----------------------------------------------------------------------
 #P UMN15/genecp scf=(maxcyc=500) freq scrf=(smd,solvent=DiChloroEthane
 )
 ----------------------------------------------------------------------
 1/10=4,30=1,38=1/1,3;
 2/12=2,17=6,18=5,40=1/2;
 3/5=7,11=2,16=1,17=8,25=1,30=1,70=32201,71=2,72=10,74=-73,116=2,140=1/1,2,3;
 4//1;
 5/5=2,7=500,38=5,53=10,98=1/2;
 8/6=4,10=90,11=11/1;
 11/6=1,8=1,9=11,15=111,16=1/1,2,10;
 10/6=1/2;
 6/7=2,8=2,9=2,10=2,28=1/1;
 7/8=1,10=1,25=1/1,2,3,16;
 1/10=4,30=1/3;
 99//99;
 Leave Link    1 at Wed Feb 19 02:56:07 2025, MaxMem= 82678120448 cpu:              18.6 elap:               0.8
 (Enter /sysapps/ubuntu-applications/gaussian-new/avx/g16/l101.exe)
 ---
 Opt
 ---
 Symbolic Z-matrix:
 Charge =  0 Multiplicity = 2
 C                    -4.9707    1.66771   0.68113 
 C                    -5.84149   2.5011   -0.03197 
 C                    -6.51988   3.52265   0.63255 
 C                    -6.31861   3.71941   2.00142 
 C                    -5.43979   2.89489   2.70855 
 C                    -4.76562   1.86372   2.05316 
 C                    -1.90049   0.70594   0.57126 
 C                    -1.2997    1.22743  -0.66842 
 C                    -1.0709    0.50202   1.77263 
 H                    -5.98184   2.35028  -1.10591 
 H                    -7.19858   4.17359   0.07779 
 H                    -6.8442    4.52518   2.51845 
 H                    -5.27625   3.05496   3.77613 
 H                    -4.07313   1.21831   2.60016 
 O                     0.10685   0.82494   1.85077 
 O                    -0.1879    1.73284  -0.71705 
 O                    -2.05593   1.0528   -1.73391 
 O                    -1.72125  -0.07869   2.75748 
 C                    -1.48904   1.43663  -2.99323 
 C                    -0.95263  -0.37082   3.93058 
 H                    -2.21963   1.14926  -3.75618 
 H                    -0.54051   0.90765  -3.15583 
 H                    -1.31566   2.52082  -3.0141 
 H                    -1.60721  -0.94804   4.59093 
 H                    -0.64192   0.56243   4.41977 
 H                    -0.0594   -0.95274   3.66264 
 O                     1.74357  -1.69347   1.34053 
 O                     1.69936  -0.71405  -1.97385 
 O                     2.53955   2.88367   0.60011 
 S                     3.7553    2.85006  -0.25002 
 S                     2.81691  -1.38638   2.31817 
 S                     0.48863  -1.56082  -1.85236 
 O                     4.01868   1.45558  -0.68317 
 O                     4.88811   3.64012   0.17873 
 O                     3.18759   0.04523   2.21696 
 O                     2.66646  -1.94243   3.64794 
 O                    -0.28576  -1.22035  -0.6419 
 O                    -0.28605  -1.72009  -3.07713 
 C                     1.16423  -3.26399  -1.5073 
 C                     4.26736  -2.22843   1.57091 
 C                     3.16084   3.61584  -1.80937 
 F                     0.42245  -3.85992  -0.58555 
 F                     2.41414  -3.20268  -1.09241 
 F                     1.11428  -3.98387  -2.6189 
 F                     4.48515  -1.71299   0.36538 
 F                     4.03315  -3.52559   1.44757 
 F                     5.34575  -2.05088   2.31658 
 F                     2.166     2.87381  -2.29093 
 F                     4.133     3.66244  -2.70591 
 F                     2.71306   4.84214  -1.59132 
 C                    -4.27098   0.55084  -0.04544 
 H                    -4.08226   0.8134   -1.09479 
 C                    -5.08563  -0.79298  -0.08877 
 C                    -6.3062   -0.62736  -0.89485 
 C                    -5.43344  -1.20725   1.27942 
 C                    -2.67397  -3.59067  -0.75538 
 C                    -3.17647  -2.28373  -2.70009 
 C                    -2.4732   -3.35245  -2.09941 
 H                    -2.16254  -4.38525  -0.2128 
 H                    -3.04728  -2.03336  -3.75447 
 H                    -1.78539  -3.95356  -2.69589 
 N                    -7.26858  -0.46599  -1.51395 
 N                    -5.70139  -1.48668   2.36865 
 N                    -4.19902  -1.79987  -0.74904 
 N                    -4.02323  -1.53428  -2.03085 
 C                    -3.56874  -2.76324  -0.07303 
 H                    -3.78437  -2.86789   0.99227 
 Yb                    1.83717   0.53598   0.15227 
 O                    -3.096     0.12929   0.62322 
 
 ITRead=  0  0  0  0  0  0  0  0  0  0  0  0  0  0  0  0  0  0  0  0
 ITRead=  0  0  0  0  0  0  0  0  0  0  0  0  0  0  0  0  0  0  0  0
 ITRead=  0  0  0  0  0  0  0  0  0  0  0  0  0  0  0  0  0  0  0  0
 ITRead=  0  0  0  0  0  0  0  0  0
 MicOpt= -1 -1 -1 -1 -1 -1 -1 -1 -1 -1 -1 -1 -1 -1 -1 -1 -1 -1 -1 -1
 MicOpt= -1 -1 -1 -1 -1 -1 -1 -1 -1 -1 -1 -1 -1 -1 -1 -1 -1 -1 -1 -1
 MicOpt= -1 -1 -1 -1 -1 -1 -1 -1 -1 -1 -1 -1 -1 -1 -1 -1 -1 -1 -1 -1
 MicOpt= -1 -1 -1 -1 -1 -1 -1 -1 -1
 NAtoms=     69 NQM=       69 NQMF=       0 NMMI=      0 NMMIF=      0
                NMic=       0 NMicF=      0.
                    Isotopes and Nuclear Properties:
 (Nuclear quadrupole moments (NQMom) in fm**2, nuclear magnetic moments (NMagM)
  in nuclear magnetons)

  Atom         1           2           3           4           5           6           7           8           9          10
 IAtWgt=          12          12          12          12          12          12          12          12          12           1
 AtmWgt=  12.0000000  12.0000000  12.0000000  12.0000000  12.0000000  12.0000000  12.0000000  12.0000000  12.0000000   1.0078250
 NucSpn=           0           0           0           0           0           0           0           0           0           1
 AtZEff=  -0.0000000  -0.0000000  -0.0000000  -0.0000000  -0.0000000  -0.0000000  -0.0000000  -0.0000000  -0.0000000  -0.0000000
 NQMom=    0.0000000   0.0000000   0.0000000   0.0000000   0.0000000   0.0000000   0.0000000   0.0000000   0.0000000   0.0000000
 NMagM=    0.0000000   0.0000000   0.0000000   0.0000000   0.0000000   0.0000000   0.0000000   0.0000000   0.0000000   2.7928460
 AtZNuc=   6.0000000   6.0000000   6.0000000   6.0000000   6.0000000   6.0000000   6.0000000   6.0000000   6.0000000   1.0000000

  Atom        11          12          13          14          15          16          17          18          19          20
 IAtWgt=           1           1           1           1          16          16          16          16          12          12
 AtmWgt=   1.0078250   1.0078250   1.0078250   1.0078250  15.9949146  15.9949146  15.9949146  15.9949146  12.0000000  12.0000000
 NucSpn=           1           1           1           1           0           0           0           0           0           0
 AtZEff=  -0.0000000  -0.0000000  -0.0000000  -0.0000000  -0.0000000  -0.0000000  -0.0000000  -0.0000000  -0.0000000  -0.0000000
 NQMom=    0.0000000   0.0000000   0.0000000   0.0000000   0.0000000   0.0000000   0.0000000   0.0000000   0.0000000   0.0000000
 NMagM=    2.7928460   2.7928460   2.7928460   2.7928460   0.0000000   0.0000000   0.0000000   0.0000000   0.0000000   0.0000000
 AtZNuc=   1.0000000   1.0000000   1.0000000   1.0000000   8.0000000   8.0000000   8.0000000   8.0000000   6.0000000   6.0000000

  Atom        21          22          23          24          25          26          27          28          29          30
 IAtWgt=           1           1           1           1           1           1          16          16          16          32
 AtmWgt=   1.0078250   1.0078250   1.0078250   1.0078250   1.0078250   1.0078250  15.9949146  15.9949146  15.9949146  31.9720718
 NucSpn=           1           1           1           1           1           1           0           0           0           0
 AtZEff=  -0.0000000  -0.0000000  -0.0000000  -0.0000000  -0.0000000  -0.0000000  -0.0000000  -0.0000000  -0.0000000  -0.0000000
 NQMom=    0.0000000   0.0000000   0.0000000   0.0000000   0.0000000   0.0000000   0.0000000   0.0000000   0.0000000   0.0000000
 NMagM=    2.7928460   2.7928460   2.7928460   2.7928460   2.7928460   2.7928460   0.0000000   0.0000000   0.0000000   0.0000000
 AtZNuc=   1.0000000   1.0000000   1.0000000   1.0000000   1.0000000   1.0000000   8.0000000   8.0000000   8.0000000  16.0000000

  Atom        31          32          33          34          35          36          37          38          39          40
 IAtWgt=          32          32          16          16          16          16          16          16          12          12
 AtmWgt=  31.9720718  31.9720718  15.9949146  15.9949146  15.9949146  15.9949146  15.9949146  15.9949146  12.0000000  12.0000000
 NucSpn=           0           0           0           0           0           0           0           0           0           0
 AtZEff=  -0.0000000  -0.0000000  -0.0000000  -0.0000000  -0.0000000  -0.0000000  -0.0000000  -0.0000000  -0.0000000  -0.0000000
 NQMom=    0.0000000   0.0000000   0.0000000   0.0000000   0.0000000   0.0000000   0.0000000   0.0000000   0.0000000   0.0000000
 NMagM=    0.0000000   0.0000000   0.0000000   0.0000000   0.0000000   0.0000000   0.0000000   0.0000000   0.0000000   0.0000000
 AtZNuc=  16.0000000  16.0000000   8.0000000   8.0000000   8.0000000   8.0000000   8.0000000   8.0000000   6.0000000   6.0000000

  Atom        41          42          43          44          45          46          47          48          49          50
 IAtWgt=          12          19          19          19          19          19          19          19          19          19
 AtmWgt=  12.0000000  18.9984032  18.9984032  18.9984032  18.9984032  18.9984032  18.9984032  18.9984032  18.9984032  18.9984032
 NucSpn=           0           1           1           1           1           1           1           1           1           1
 AtZEff=  -0.0000000  -0.0000000  -0.0000000  -0.0000000  -0.0000000  -0.0000000  -0.0000000  -0.0000000  -0.0000000  -0.0000000
 NQMom=    0.0000000   0.0000000   0.0000000   0.0000000   0.0000000   0.0000000   0.0000000   0.0000000   0.0000000   0.0000000
 NMagM=    0.0000000   2.6288670   2.6288670   2.6288670   2.6288670   2.6288670   2.6288670   2.6288670   2.6288670   2.6288670
 AtZNuc=   6.0000000   9.0000000   9.0000000   9.0000000   9.0000000   9.0000000   9.0000000   9.0000000   9.0000000   9.0000000

  Atom        51          52          53          54          55          56          57          58          59          60
 IAtWgt=          12           1          12          12          12          12          12          12           1           1
 AtmWgt=  12.0000000   1.0078250  12.0000000  12.0000000  12.0000000  12.0000000  12.0000000  12.0000000   1.0078250   1.0078250
 NucSpn=           0           1           0           0           0           0           0           0           1           1
 AtZEff=  -0.0000000  -0.0000000  -0.0000000  -0.0000000  -0.0000000  -0.0000000  -0.0000000  -0.0000000  -0.0000000  -0.0000000
 NQMom=    0.0000000   0.0000000   0.0000000   0.0000000   0.0000000   0.0000000   0.0000000   0.0000000   0.0000000   0.0000000
 NMagM=    0.0000000   2.7928460   0.0000000   0.0000000   0.0000000   0.0000000   0.0000000   0.0000000   2.7928460   2.7928460
 AtZNuc=   6.0000000   1.0000000   6.0000000   6.0000000   6.0000000   6.0000000   6.0000000   6.0000000   1.0000000   1.0000000

  Atom        61          62          63          64          65          66          67          68          69
 IAtWgt=           1          14          14          14          14          12           1         174          16
 AtmWgt=   1.0078250  14.0030740  14.0030740  14.0030740  14.0030740  12.0000000   1.0078250 173.9390000  15.9949146
 NucSpn=           1           2           2           2           2           0           1           0           0
 AtZEff=  -0.0000000  -0.0000000  -0.0000000  -0.0000000  -0.0000000  -0.0000000  -0.0000000  -0.0000000  -0.0000000
 NQMom=    0.0000000   2.0440000   2.0440000   2.0440000   2.0440000   0.0000000   0.0000000   0.0000000   0.0000000
 NMagM=    2.7928460   0.4037610   0.4037610   0.4037610   0.4037610   0.0000000   2.7928460   0.0000000   0.0000000
 AtZNuc=   1.0000000   7.0000000   7.0000000   7.0000000   7.0000000   6.0000000   1.0000000  70.0000000   8.0000000
 Leave Link  101 at Wed Feb 19 02:56:07 2025, MaxMem= 82678120448 cpu:              11.9 elap:               0.5
 (Enter /sysapps/ubuntu-applications/gaussian-new/avx/g16/l103.exe)

 GradGradGradGradGradGradGradGradGradGradGradGradGradGradGradGradGradGrad
 Berny optimization.
 Initialization pass.
 Trust Radius=3.00D-01 FncErr=1.00D-07 GrdErr=1.00D-07 EigMax=2.50D+02 EigMin=1.00D-04
 Number of steps in this run=      2 maximum allowed number of steps=      2.
 GradGradGradGradGradGradGradGradGradGradGradGradGradGradGradGradGradGrad

 Leave Link  103 at Wed Feb 19 02:56:07 2025, MaxMem= 82678120448 cpu:               1.1 elap:               0.1
 (Enter /sysapps/ubuntu-applications/gaussian-new/avx/g16/l202.exe)
 Stoichiometry    C22H16F9N4O14S3Yb(2)
 Framework group  C1[X(C22H16F9N4O14S3Yb)]
 Deg. of freedom   201
 Full point group                 C1      NOp   1
 Largest Abelian subgroup         C1      NOp   1
 Largest concise Abelian subgroup C1      NOp   1
                         Standard orientation:                         
 ---------------------------------------------------------------------
 Center     Atomic      Atomic             Coordinates (Angstroms)
 Number     Number       Type             X           Y           Z
 ---------------------------------------------------------------------
      1          6           0       -4.970701    1.667707    0.681130
      2          6           0       -5.841488    2.501096   -0.031969
      3          6           0       -6.519875    3.522653    0.632547
      4          6           0       -6.318613    3.719405    2.001423
      5          6           0       -5.439785    2.894889    2.708548
      6          6           0       -4.765616    1.863717    2.053157
      7          6           0       -1.900492    0.705942    0.571258
      8          6           0       -1.299703    1.227425   -0.668420
      9          6           0       -1.070899    0.502022    1.772627
     10          1           0       -5.981841    2.350282   -1.105905
     11          1           0       -7.198580    4.173595    0.077790
     12          1           0       -6.844197    4.525180    2.518447
     13          1           0       -5.276252    3.054957    3.776132
     14          1           0       -4.073130    1.218306    2.600161
     15          8           0        0.106852    0.824939    1.850767
     16          8           0       -0.187899    1.732839   -0.717051
     17          8           0       -2.055933    1.052798   -1.733914
     18          8           0       -1.721246   -0.078692    2.757478
     19          6           0       -1.489035    1.436626   -2.993232
     20          6           0       -0.952631   -0.370824    3.930583
     21          1           0       -2.219625    1.149260   -3.756184
     22          1           0       -0.540512    0.907650   -3.155834
     23          1           0       -1.315661    2.520818   -3.014096
     24          1           0       -1.607208   -0.948043    4.590927
     25          1           0       -0.641918    0.562430    4.419769
     26          1           0       -0.059404   -0.952744    3.662638
     27          8           0        1.743574   -1.693466    1.340528
     28          8           0        1.699356   -0.714054   -1.973851
     29          8           0        2.539550    2.883673    0.600114
     30         16           0        3.755299    2.850056   -0.250018
     31         16           0        2.816910   -1.386379    2.318173
     32         16           0        0.488634   -1.560822   -1.852355
     33          8           0        4.018678    1.455581   -0.683165
     34          8           0        4.888106    3.640120    0.178734
     35          8           0        3.187592    0.045226    2.216960
     36          8           0        2.666463   -1.942434    3.647944
     37          8           0       -0.285760   -1.220353   -0.641904
     38          8           0       -0.286054   -1.720088   -3.077125
     39          6           0        1.164229   -3.263990   -1.507304
     40          6           0        4.267363   -2.228432    1.570913
     41          6           0        3.160838    3.615838   -1.809367
     42          9           0        0.422446   -3.859922   -0.585554
     43          9           0        2.414136   -3.202683   -1.092414
     44          9           0        1.114284   -3.983867   -2.618903
     45          9           0        4.485147   -1.712992    0.365384
     46          9           0        4.033147   -3.525589    1.447569
     47          9           0        5.345746   -2.050883    2.316575
     48          9           0        2.166000    2.873808   -2.290931
     49          9           0        4.133005    3.662442   -2.705905
     50          9           0        2.713058    4.842142   -1.591315
     51          6           0       -4.270981    0.550836   -0.045435
     52          1           0       -4.082260    0.813395   -1.094786
     53          6           0       -5.085631   -0.792979   -0.088767
     54          6           0       -6.306197   -0.627360   -0.894845
     55          6           0       -5.433444   -1.207245    1.279420
     56          6           0       -2.673969   -3.590667   -0.755384
     57          6           0       -3.176474   -2.283728   -2.700090
     58          6           0       -2.473200   -3.352445   -2.099406
     59          1           0       -2.162535   -4.385255   -0.212804
     60          1           0       -3.047283   -2.033358   -3.754471
     61          1           0       -1.785386   -3.953563   -2.695891
     62          7           0       -7.268577   -0.465988   -1.513953
     63          7           0       -5.701394   -1.486676    2.368647
     64          7           0       -4.199024   -1.799865   -0.749037
     65          7           0       -4.023229   -1.534280   -2.030849
     66          6           0       -3.568742   -2.763243   -0.073026
     67          1           0       -3.784370   -2.867891    0.992266
     68         70           0        1.837165    0.535977    0.152268
     69          8           0       -3.095998    0.129286    0.623221
 ---------------------------------------------------------------------
 Rotational constants (GHZ):           0.0668315           0.0364003           0.0318824
 Leave Link  202 at Wed Feb 19 02:56:07 2025, MaxMem= 82678120448 cpu:               1.3 elap:               0.1
 (Enter /sysapps/ubuntu-applications/gaussian-new/avx/g16/l301.exe)
 General basis read from cards:  (5D, 7F)
 Centers:      10     11     12     13     14     21     22     23     24     25
 Centers:      26     52     59     60     61     67
 S 3 1.00
     Exponent=  1.3010701000D+01 Coefficients=  1.9682158000D-02
     Exponent=  1.9622572000D+00 Coefficients=  1.3796524000D-01
     Exponent=  4.4453796000D-01 Coefficients=  4.7831935000D-01
 S 1 1.00
     Exponent=  1.2194962000D-01 Coefficients=  1.0000000000D+00
 P 1 1.00
     Exponent=  8.0000000000D-01 Coefficients=  1.0000000000D+00
 ****
 Centers:       1      2      3      4      5      6      7      8      9     19
 Centers:      20     39     40     41     51     53     54     55     56     57
 Centers:      58     66
 S 5 1.00
     Exponent=  1.2384016938D+03 Coefficients=  5.4568832082D-03
     Exponent=  1.8629004992D+02 Coefficients=  4.0638409211D-02
     Exponent=  4.2251176346D+01 Coefficients=  1.8025593888D-01
     Exponent=  1.1676557932D+01 Coefficients=  4.6315121755D-01
     Exponent=  3.5930506482D+00 Coefficients=  4.4087173314D-01
 S 1 1.00
     Exponent=  4.0245147363D-01 Coefficients=  1.0000000000D+00
 S 1 1.00
     Exponent=  1.3090182668D-01 Coefficients=  1.0000000000D+00
 P 3 1.00
     Exponent=  9.4680970621D+00 Coefficients=  3.8387871728D-02
     Exponent=  2.0103545142D+00 Coefficients=  2.1117025112D-01
     Exponent=  5.4771004707D-01 Coefficients=  5.1328172114D-01
 P 1 1.00
     Exponent=  1.5268613795D-01 Coefficients=  1.0000000000D+00
 D 1 1.00
     Exponent=  8.0000000000D-01 Coefficients=  1.0000000000D+00
 ****
 Centers:      62     63     64     65
 S 5 1.00
     Exponent=  1.7128415853D+03 Coefficients= -5.3934125305D-03
     Exponent=  2.5764812677D+02 Coefficients= -4.0221581118D-02
     Exponent=  5.8458245853D+01 Coefficients= -1.7931144990D-01
     Exponent=  1.6198367905D+01 Coefficients= -4.6376317823D-01
     Exponent=  5.0052600809D+00 Coefficients= -4.4171422662D-01
 S 1 1.00
     Exponent=  5.8731856571D-01 Coefficients=  1.0000000000D+00
 S 1 1.00
     Exponent=  1.8764592253D-01 Coefficients=  1.0000000000D+00
 P 3 1.00
     Exponent=  1.3571470233D+01 Coefficients= -4.0072398852D-02
     Exponent=  2.9257372874D+00 Coefficients= -2.1807045028D-01
     Exponent=  7.9927750754D-01 Coefficients= -5.1294466049D-01
 P 1 1.00
     Exponent=  2.1954348034D-01 Coefficients=  1.0000000000D+00
 D 1 1.00
     Exponent=  1.0000000000D+00 Coefficients=  1.0000000000D+00
 ****
 Centers:      15     16     17     18     27     28     29     33     34     35
 Centers:      36     37     38     69
 S 5 1.00
     Exponent=  2.2661767785D+03 Coefficients= -5.3431809926D-03
     Exponent=  3.4087010191D+02 Coefficients= -3.9890039230D-02
     Exponent=  7.7363135167D+01 Coefficients= -1.7853911985D-01
     Exponent=  2.1479644940D+01 Coefficients= -4.6427684959D-01
     Exponent=  6.6589433124D+00 Coefficients= -4.4309745172D-01
 S 1 1.00
     Exponent=  8.0975975668D-01 Coefficients=  1.0000000000D+00
 S 1 1.00
     Exponent=  2.5530772234D-01 Coefficients=  1.0000000000D+00
 P 3 1.00
     Exponent=  1.7721504317D+01 Coefficients=  4.3394573193D-02
     Exponent=  3.8635505440D+00 Coefficients=  2.3094120765D-01
     Exponent=  1.0480920883D+00 Coefficients=  5.1375311064D-01
 P 1 1.00
     Exponent=  2.7641544411D-01 Coefficients=  1.0000000000D+00
 D 1 1.00
     Exponent=  1.2000000000D+00 Coefficients=  1.0000000000D+00
 ****
 Centers:      42     43     44     45     46     47     48     49     50
 S 5 1.00
     Exponent=  2.8948325990D+03 Coefficients= -5.3408255515D-03
     Exponent=  4.3541939120D+02 Coefficients= -3.9904258866D-02
     Exponent=  9.8843328866D+01 Coefficients= -1.7912768038D-01
     Exponent=  2.7485198001D+01 Coefficients= -4.6758090825D-01
     Exponent=  8.5405498171D+00 Coefficients= -4.4653131020D-01
 S 1 1.00
     Exponent=  1.0654578038D+00 Coefficients=  1.0000000000D+00
 S 1 1.00
     Exponent=  3.3247346748D-01 Coefficients=  1.0000000000D+00
 P 3 1.00
     Exponent=  2.2696633924D+01 Coefficients= -4.5212874436D-02
     Exponent=  4.9872339257D+00 Coefficients= -2.3754317067D-01
     Exponent=  1.3491613954D+00 Coefficients= -5.1287353587D-01
 P 1 1.00
     Exponent=  3.4829881977D-01 Coefficients=  1.0000000000D+00
 D 1 1.00
     Exponent=  1.4000000000D+00 Coefficients=  1.0000000000D+00
 ****
 Centers:      30     31     32
 S 5 1.00
     Exponent=  9.1849303010D+03 Coefficients= -2.2294387756D-03
     Exponent=  1.3815105503D+03 Coefficients= -1.6683029937D-02
     Exponent=  3.1387147580D+02 Coefficients= -7.5262436116D-02
     Exponent=  8.8053870623D+01 Coefficients= -1.9376827038D-01
     Exponent=  2.7039914905D+01 Coefficients= -1.7718020803D-01
 S 3 1.00
     Exponent=  4.5648731303D+01 Coefficients= -1.0736062573D-01
     Exponent=  4.9664522326D+00 Coefficients=  6.5066293018D-01
     Exponent=  2.0116242047D+00 Coefficients=  5.9712155354D-01
 S 1 1.00
     Exponent=  3.5661077013D-01 Coefficients=  1.0000000000D+00
 S 1 1.00
     Exponent=  1.3507221477D-01 Coefficients=  1.0000000000D+00
 P 5 1.00
     Exponent=  2.6198233439D+02 Coefficients= -9.2729929822D-03
     Exponent=  6.1306894736D+01 Coefficients= -6.6547669241D-02
     Exponent=  1.9103729887D+01 Coefficients= -2.4828595903D-01
     Exponent=  6.6567720378D+00 Coefficients= -4.8703847402D-01
     Exponent=  2.3959635161D+00 Coefficients= -3.9337850312D-01
 P 1 1.00
     Exponent=  6.1776161679D-01 Coefficients=  1.0000000000D+00
 P 1 1.00
     Exponent=  1.6993376871D-01 Coefficients=  1.0000000000D+00
 D 1 1.00
     Exponent=  5.5000000000D-01 Coefficients=  1.0000000000D+00
 ****
 Centers:      68
 S 5 1.00
     Exponent=  9.1972903000D+04 Coefficients=  5.1000000000D-05
     Exponent=  1.3787371000D+04 Coefficients=  3.8600000000D-04
     Exponent=  3.1236135000D+03 Coefficients=  1.8440000000D-03
     Exponent=  8.7147540000D+02 Coefficients=  5.3560000000D-03
     Exponent=  2.5046300000D+02 Coefficients=  8.8590000000D-03
 S 1 1.00
     Exponent=  5.8282700000D+01 Coefficients=  1.0000000000D+00
 S 1 1.00
     Exponent=  4.1630500000D+01 Coefficients=  1.0000000000D+00
 S 1 1.00
     Exponent=  2.0216400000D+01 Coefficients=  1.0000000000D+00
 S 1 1.00
     Exponent=  4.9972000000D+00 Coefficients=  1.0000000000D+00
 S 1 1.00
     Exponent=  2.4822000000D+00 Coefficients=  1.0000000000D+00
 S 1 1.00
     Exponent=  9.1790000000D-01 Coefficients=  1.0000000000D+00
 S 1 1.00
     Exponent=  3.8530000000D-01 Coefficients=  1.0000000000D+00
 S 1 1.00
     Exponent=  6.1400000000D-02 Coefficients=  1.0000000000D+00
 S 1 1.00
     Exponent=  2.5000000000D-02 Coefficients=  1.0000000000D+00
 P 3 1.00
     Exponent=  1.2274108000D+01 Coefficients= -1.5252141000D-01
     Exponent=  1.0695631000D+01 Coefficients= -2.0243492000D-01
     Exponent=  2.0359782000D+00 Coefficients= -1.9621046000D-01
 P 6 1.00
     Exponent=  1.4975567000D+03 Coefficients= -1.0182934000D-03
     Exponent=  3.7504101000D+02 Coefficients= -6.0919401000D-03
     Exponent=  1.2869727000D+02 Coefficients= -1.7077693000D-02
     Exponent=  4.5270759000D+01 Coefficients= -3.5655508000D-02
     Exponent=  1.4906971000D+01 Coefficients=  2.3732226000D-01
     Exponent=  5.6450858000D+00 Coefficients= -3.0559689000D-01
 P 1 1.00
     Exponent=  3.6752106000D+00 Coefficients=  1.0000000000D+00
 P 1 1.00
     Exponent=  1.3296961000D+00 Coefficients=  1.0000000000D+00
 P 1 1.00
     Exponent=  5.5338966000D-01 Coefficients=  1.0000000000D+00
 P 1 1.00
     Exponent=  2.2382350000D-01 Coefficients=  1.0000000000D+00
 P 1 1.00
     Exponent=  6.8350467650D-02 Coefficients=  1.0000000000D+00
 P 1 1.00
     Exponent=  2.5355670803D-02 Coefficients=  1.0000000000D+00
 D 6 1.00
     Exponent=  4.6976060000D+02 Coefficients=  1.9840000000D-03
     Exponent=  1.4261280000D+02 Coefficients=  1.6013000000D-02
     Exponent=  5.5126700000D+01 Coefficients=  6.3153000000D-02
     Exponent=  2.3441500000D+01 Coefficients=  1.3780000000D-01
     Exponent=  9.4951000000D+00 Coefficients=  2.8549800000D-01
     Exponent=  4.5792000000D+00 Coefficients=  4.3830900000D-01
 D 1 1.00
     Exponent=  2.1646000000D+00 Coefficients=  1.0000000000D+00
 D 1 1.00
     Exponent=  9.2380000000D-01 Coefficients=  1.0000000000D+00
 D 1 1.00
     Exponent=  3.1070000000D-01 Coefficients=  1.0000000000D+00
 D 1 1.00
     Exponent=  9.1400000000D-02 Coefficients=  1.0000000000D+00
 F 5 1.00
     Exponent=  1.4202930000D+02 Coefficients=  5.9570000000D-03
     Exponent=  5.1086200000D+01 Coefficients=  5.3180000000D-02
     Exponent=  2.2874100000D+01 Coefficients=  1.7807600000D-01
     Exponent=  1.0502500000D+01 Coefficients=  3.0060000000D-01
     Exponent=  4.7872000000D+00 Coefficients=  3.5034200000D-01
 F 1 1.00
     Exponent=  2.1088000000D+00 Coefficients=  1.0000000000D+00
 F 1 1.00
     Exponent=  8.6090000000D-01 Coefficients=  1.0000000000D+00
 F 1 1.00
     Exponent=  3.0600000000D-01 Coefficients=  1.0000000000D+00
 G 1 1.00
     Exponent=  5.1330000000D-01 Coefficients=  1.0000000000D+00
 ****
 ======================================================================================================
                                       Pseudopotential Parameters
 ======================================================================================================
  Center     Atomic      Valence      Angular      Power
  Number     Number     Electrons     Momentum     of R      Exponent        Coefficient   SO-Coeffient
 ======================================================================================================
    1          6
                                   No pseudopotential on this center.
    2          6
                                   No pseudopotential on this center.
    3          6
                                   No pseudopotential on this center.
    4          6
                                   No pseudopotential on this center.
    5          6
                                   No pseudopotential on this center.
    6          6
                                   No pseudopotential on this center.
    7          6
                                   No pseudopotential on this center.
    8          6
                                   No pseudopotential on this center.
    9          6
                                   No pseudopotential on this center.
   10          1
                                   No pseudopotential on this center.
   11          1
                                   No pseudopotential on this center.
   12          1
                                   No pseudopotential on this center.
   13          1
                                   No pseudopotential on this center.
   14          1
                                   No pseudopotential on this center.
   15          8
                                   No pseudopotential on this center.
   16          8
                                   No pseudopotential on this center.
   17          8
                                   No pseudopotential on this center.
   18          8
                                   No pseudopotential on this center.
   19          6
                                   No pseudopotential on this center.
   20          6
                                   No pseudopotential on this center.
   21          1
                                   No pseudopotential on this center.
   22          1
                                   No pseudopotential on this center.
   23          1
                                   No pseudopotential on this center.
   24          1
                                   No pseudopotential on this center.
   25          1
                                   No pseudopotential on this center.
   26          1
                                   No pseudopotential on this center.
   27          8
                                   No pseudopotential on this center.
   28          8
                                   No pseudopotential on this center.
   29          8
                                   No pseudopotential on this center.
   30         16
                                   No pseudopotential on this center.
   31         16
                                   No pseudopotential on this center.
   32         16
                                   No pseudopotential on this center.
   33          8
                                   No pseudopotential on this center.
   34          8
                                   No pseudopotential on this center.
   35          8
                                   No pseudopotential on this center.
   36          8
                                   No pseudopotential on this center.
   37          8
                                   No pseudopotential on this center.
   38          8
                                   No pseudopotential on this center.
   39          6
                                   No pseudopotential on this center.
   40          6
                                   No pseudopotential on this center.
   41          6
                                   No pseudopotential on this center.
   42          9
                                   No pseudopotential on this center.
   43          9
                                   No pseudopotential on this center.
   44          9
                                   No pseudopotential on this center.
   45          9
                                   No pseudopotential on this center.
   46          9
                                   No pseudopotential on this center.
   47          9
                                   No pseudopotential on this center.
   48          9
                                   No pseudopotential on this center.
   49          9
                                   No pseudopotential on this center.
   50          9
                                   No pseudopotential on this center.
   51          6
                                   No pseudopotential on this center.
   52          1
                                   No pseudopotential on this center.
   53          6
                                   No pseudopotential on this center.
   54          6
                                   No pseudopotential on this center.
   55          6
                                   No pseudopotential on this center.
   56          6
                                   No pseudopotential on this center.
   57          6
                                   No pseudopotential on this center.
   58          6
                                   No pseudopotential on this center.
   59          1
                                   No pseudopotential on this center.
   60          1
                                   No pseudopotential on this center.
   61          1
                                   No pseudopotential on this center.
   62          7
                                   No pseudopotential on this center.
   63          7
                                   No pseudopotential on this center.
   64          7
                                   No pseudopotential on this center.
   65          7
                                   No pseudopotential on this center.
   66          6
                                   No pseudopotential on this center.
   67          1
                                   No pseudopotential on this center.
   68         70           42
                                      H and up 
                                                     2        1.0000000        0.00000000    0.00000000
                                      S - H
                                                     2       32.4244840      891.01377700    0.00000000
                                      P - H
                                                     2       18.6562320      264.03695300    0.00000000
                                      D - H
                                                     2       10.4902220       73.92391900    0.00000000
                                      F - H
                                                     2       20.7741830      -39.59217300    0.00000000
                                      G - H
                                                     2       28.4310280      -34.63863800    0.00000000
   69          8
                                   No pseudopotential on this center.
 ======================================================================================================
 Ernie: Thresh=  0.10000D-02 Tol=  0.10000D-05 Strict=F.
 There are   991 symmetry adapted cartesian basis functions of A   symmetry.
 There are   916 symmetry adapted basis functions of A   symmetry.
   916 basis functions,  1662 primitive gaussians,   991 cartesian basis functions
   230 alpha electrons      229 beta electrons
       nuclear repulsion energy     11534.2704766067 Hartrees.
 IExCor= 7252 DFT=T Ex+Corr=MN15 ExCW=0 ScaHFX=  0.440000
 ScaDFX=  1.000000  1.000000  1.000000  1.000000 ScalE2=  1.000000  1.000000
 IRadAn=      5 IRanWt=     -1 IRanGd=            0 ICorTp=0 IEmpDi=  4
 NAtoms=   69 NActive=   69 NUniq=   69 SFac= 1.00D+00 NAtFMM=   60 NAOKFM=T Big=T
 Integral buffers will be    131072 words long.
 Raffenetti 2 integral format.
 Two-electron integral symmetry is turned on.
 Force inversion solution in PCM.
 ------------------------------------------------------------------------------
 Polarizable Continuum Model (PCM)
 =================================
 Model                : PCM.
 Atomic radii         : SMD-Coulomb.
 Polarization charges : Total charges.
 Charge compensation  : None.
 Solution method      : Matrix inversion.
 Cavity type          : VdW (van der Waals Surface) (Alpha=1.000).
 Cavity algorithm     : GePol (No added spheres)
                        Default sphere list used, NSphG=   69.
                        Lebedev-Laikov grids with approx.  5.0 points / Ang**2.
                        Smoothing algorithm: York/Karplus (Gamma=1.0000).
                        Polarization charges: spherical gaussians, with
                                              point-specific exponents (IZeta= 3).
                        Self-potential: point-specific (ISelfS= 7).
                        Self-field    : sphere-specific E.n sum rule (ISelfD= 2).
 1st derivatives      : Analytical E(r).r(x)/FMM algorithm (CHGder, D1EAlg=3).
                        Cavity 1st derivative terms included.
 2nd derivatives      : Analytical E(r).r(xy)/FMM algorithm (CHGder, D2EAlg=3).
                        Cavity 2nd derivative terms included.
 Solvent              : DiChloroEthane, Eps=  10.125000 Eps(inf)=   2.087447
 ------------------------------------------------------------------------------
 GePol: Number of generator spheres                  =      69
 GePol: Total number of spheres                      =      69
 GePol: Number of exposed spheres                    =      69 (100.00%)
 GePol: Number of points                             =    4974
 GePol: Average weight of points                     =       0.13
 GePol: Minimum weight of points                     =   0.76D-10
 GePol: Maximum weight of points                     =    0.21501
 GePol: Number of points with low weight             =     307
 GePol: Fraction of low-weight points (<1% of avg)   =       6.17%
 GePol: Cavity surface area                          =    642.942 Ang**2
 GePol: Cavity volume                                =    786.280 Ang**3
 ------------------------------------------------------------------------------
 Atomic radii for non-electrostatic terms: SMD-CDS.
 ------------------------------------------------------------------------------
 PCM non-electrostatic energy =         0.0066447830 Hartrees.
 Nuclear repulsion after PCM non-electrostatic terms =    11534.2771213897 Hartrees.
 Leave Link  301 at Wed Feb 19 02:56:08 2025, MaxMem= 82678120448 cpu:              14.3 elap:               0.6
 (Enter /sysapps/ubuntu-applications/gaussian-new/avx/g16/l302.exe)
 NPDir=0 NMtPBC=     1 NCelOv=     1 NCel=       1 NClECP=     1 NCelD=      1
         NCelK=      1 NCelE2=     1 NClLst=     1 CellRange=     0.0.
 One-electron integrals computed using PRISM.
 One-electron integral symmetry used in STVInt
   1 Symmetry operations used in ECPInt.
 ECPInt:  NShTT=   77815 NPrTT=  297642 LenC2=   59620 LenP2D=  137889.
 LDataN:  DoStor=T MaxTD1= 9 Len=  602
 NBasis=   916 RedAO= T EigKep=  2.54D-04  NBF=   916
 NBsUse=   916 1.00D-06 EigRej= -1.00D+00 NBFU=   916
 Precomputing XC quadrature grid using
 IXCGrd= 4 IRadAn=           5 IRanWt=          -1 IRanGd=           0 AccXCQ= 0.00D+00.
 Defaulting to unpruned grid for atomic number  70.
 Generated NRdTot=       0 NPtTot=           0 NUsed=           0 NTot=          32
 NSgBfM=   955   955   955   955   955 MxSgAt=    69 MxSgA2=    69.
 Leave Link  302 at Wed Feb 19 02:56:12 2025, MaxMem= 82678120448 cpu:              96.5 elap:               4.0
 (Enter /sysapps/ubuntu-applications/gaussian-new/avx/g16/l303.exe)
 DipDrv:  MaxL=1.
 Leave Link  303 at Wed Feb 19 02:56:13 2025, MaxMem= 82678120448 cpu:               8.2 elap:               0.4
 (Enter /sysapps/ubuntu-applications/gaussian-new/avx/g16/l401.exe)
 ExpMin= 2.50D-02 ExpMax= 9.20D+04 ExpMxC= 1.38D+04 IAcc=3 IRadAn=         5 AccDes= 0.00D+00
 Harris functional with IExCor= 1009 and IRadAn=       5 diagonalized for initial guess.
 HarFok:  IExCor= 1009 AccDes= 0.00D+00 IRadAn=         5 IDoV= 1 UseB2=F ITyADJ=14
 ICtDFT=  3500011 ScaDFX=  1.000000  1.000000  1.000000  1.000000
 Defaulting to unpruned grid for atomic number  70.
 FoFCou: FMM=F IPFlag=           0 FMFlag=      100000 FMFlg1=        2001
         NFxFlg=           0 DoJE=T BraDBF=F KetDBF=T FulRan=T
         wScrn=  0.000000 ICntrl=       500 IOpCl=  0 I1Cent=   200000004 NGrid=           0
         NMat0=    1 NMatS0=      1 NMatT0=    0 NMatD0=    1 NMtDS0=    0 NMtDT0=    0
 Petite list used in FoFCou.
 Harris En= -5369.65386832428    
 JPrj=0 DoOrth=F DoCkMO=F.
 Initial guess <Sx>= 0.0000 <Sy>= 0.0000 <Sz>= 0.5000 <S**2>= 0.7500 S= 0.5000
 Leave Link  401 at Wed Feb 19 02:56:22 2025, MaxMem= 82678120448 cpu:             237.2 elap:               9.9
 (Enter /sysapps/ubuntu-applications/gaussian-new/avx/g16/l502.exe)
 Integral symmetry usage will be decided dynamically.
 UHF open shell SCF:
 Using DIIS extrapolation, IDIIS=  1040.
 NGot= 82678120448 LenX= 82676122245 LenY= 82675139173
 Requested convergence on RMS density matrix=1.00D-08 within 500 cycles.
 Requested convergence on MAX density matrix=1.00D-06.
 Requested convergence on             energy=1.00D-06.
 No special actions if energy rises.
 Fock matrices will be formed incrementally for  20 cycles.

 Cycle   1  Pass 1  IDiag  1:
 FoFJK:  IHMeth= 1 ICntrl=       0 DoSepK=F KAlg= 0 I1Cent=           0 FoldK=F
 IRaf= 830000000 NMat=       1 IRICut=       1 DoRegI=T DoRafI=F ISym2E= 0 IDoP0=0 IntGTp=1.
 FoFCou: FMM=T IPFlag=           0 FMFlag=      100000 FMFlg1=        2001
         NFxFlg=           0 DoJE=F BraDBF=F KetDBF=F FulRan=T
         wScrn=  0.000000 ICntrl=         0 IOpCl=  1 I1Cent=           0 NGrid=           0
         NMat0=    1 NMatS0=      1 NMatT0=    0 NMatD0=    1 NMtDS0=    0 NMtDT0=    0
 Symmetry not used in FoFCou.
 FMM levels:  10  Number of levels for PrismC:   9
 Defaulting to unpruned grid for atomic number  70.
 Defaulting to unpruned grid for atomic number  70.
 Defaulting to unpruned grid for atomic number  70.
 Defaulting to unpruned grid for atomic number  70.
 Defaulting to unpruned grid for atomic number  70.
 Defaulting to unpruned grid for atomic number  70.
 Defaulting to unpruned grid for atomic number  70.
 Defaulting to unpruned grid for atomic number  70.
 Defaulting to unpruned grid for atomic number  70.
 Defaulting to unpruned grid for atomic number  70.
 Defaulting to unpruned grid for atomic number  70.
 Defaulting to unpruned grid for atomic number  70.
 Defaulting to unpruned grid for atomic number  70.
 Defaulting to unpruned grid for atomic number  70.
 Defaulting to unpruned grid for atomic number  70.
 Defaulting to unpruned grid for atomic number  70.
 Defaulting to unpruned grid for atomic number  70.
 Defaulting to unpruned grid for atomic number  70.
 Defaulting to unpruned grid for atomic number  70.
 Defaulting to unpruned grid for atomic number  70.
 Defaulting to unpruned grid for atomic number  70.
 Defaulting to unpruned grid for atomic number  70.
 Defaulting to unpruned grid for atomic number  70.
 Defaulting to unpruned grid for atomic number  70.
 Inv3:  Mode=1 IEnd=    74222028.
 Iteration    1 A*A^-1 deviation from unit magnitude is 9.77D-15 for   4711.
 Iteration    1 A*A^-1 deviation from orthogonality  is 7.06D-15 for   4711   3755.
 Iteration    1 A^-1*A deviation from unit magnitude is 9.10D-15 for   3755.
 Iteration    1 A^-1*A deviation from orthogonality  is 6.08D-14 for   1487   1416.
 E= -5363.87955359378    
 DIIS: error= 1.74D-01 at cycle   1 NSaved=   1.
 NSaved= 1 IEnMin= 1 EnMin= -5363.87955359378     IErMin= 1 ErrMin= 1.74D-01
 ErrMax= 1.74D-01  0.00D+00 EMaxC= 1.00D-01 BMatC= 1.38D+02 BMatP= 1.38D+02
 IDIUse=3 WtCom= 0.00D+00 WtEn= 1.00D+00
 Coeff-Com:  0.100D+01
 Coeff-En:   0.100D+01
 Coeff:      0.100D+01
 Gap=     0.186 Goal=   None    Shift=    0.000
 Gap=     0.204 Goal=   None    Shift=    0.000
 GapD=    0.186 DampG=1.000 DampE=0.125 DampFc=0.1250 IDamp=-1.
 Damping current iteration by 1.25D-01
 RMSDP=1.51D-02 MaxDP=2.85D+00              OVMax= 9.89D-01

 Cycle   2  Pass 1  IDiag  1:
 RMSU=  1.89D-03    CP:  9.93D-01
 E= -5365.28366366969     Delta-E=       -1.404110075908 Rises=F Damp=T
 DIIS: error= 6.85D-02 at cycle   2 NSaved=   2.
 NSaved= 2 IEnMin= 2 EnMin= -5365.28366366969     IErMin= 2 ErrMin= 6.85D-02
 ErrMax= 6.85D-02  0.00D+00 EMaxC= 1.00D-01 BMatC= 2.72D+01 BMatP= 1.38D+02
 IDIUse=3 WtCom= 3.15D-01 WtEn= 6.85D-01
 Coeff-Com: -0.612D+00 0.161D+01
 Coeff-En:   0.250D+00 0.750D+00
 Coeff:     -0.212D-01 0.102D+01
 Gap=    -0.066 Goal=   None    Shift=    0.000
 Gap=    -0.120 Goal=   None    Shift=    0.000
 RMSDP=3.78D-03 MaxDP=4.45D-01 DE=-1.40D+00 OVMax= 9.60D-01

 Cycle   3  Pass 1  IDiag  1:
 RMSU=  3.56D-03    CP:  9.73D-01  3.34D-01
 E= -5356.02242566648     Delta-E=        9.261238003211 Rises=F Damp=F
 DIIS: error= 8.46D-02 at cycle   3 NSaved=   3.
 NSaved= 3 IEnMin= 2 EnMin= -5365.28366366969     IErMin= 2 ErrMin= 6.85D-02
 ErrMax= 8.46D-02  0.00D+00 EMaxC= 1.00D-01 BMatC= 5.48D+01 BMatP= 2.72D+01
 IDIUse=2 WtCom= 0.00D+00 WtEn= 1.00D+00
 EnCoef did     1 forward-backward iterations
 Coeff-En:   0.594D-01 0.750D+00 0.190D+00
 Coeff:      0.594D-01 0.750D+00 0.190D+00
 Gap=     0.188 Goal=   None    Shift=    0.000
 Gap=     0.411 Goal=   None    Shift=    0.000
 RMSDP=2.79D-03 MaxDP=3.81D-01 DE= 9.26D+00 OVMax= 9.94D-01

 Cycle   4  Pass 1  IDiag  1:
 RMSU=  1.92D-03    CP:  9.73D-01  4.02D-01  4.31D-01
 E= -5366.30151324647     Delta-E=      -10.279087579989 Rises=F Damp=F
 DIIS: error= 1.16D-01 at cycle   4 NSaved=   4.
 NSaved= 4 IEnMin= 4 EnMin= -5366.30151324647     IErMin= 2 ErrMin= 6.85D-02
 ErrMax= 1.16D-01  0.00D+00 EMaxC= 1.00D-01 BMatC= 6.88D+01 BMatP= 2.72D+01
 IDIUse=2 WtCom= 0.00D+00 WtEn= 1.00D+00
 EnCoef did   100 forward-backward iterations
 Coeff-En:   0.377D+00 0.616D-02 0.388D-03 0.617D+00
 Coeff:      0.377D+00 0.616D-02 0.388D-03 0.617D+00
 Gap=     0.662 Goal=   None    Shift=    0.000
 Gap=     0.131 Goal=   None    Shift=    0.000
 RMSDP=1.59D-03 MaxDP=4.21D-01 DE=-1.03D+01 OVMax= 6.83D-01

 Cycle   5  Pass 1  IDiag  1:
 RMSU=  1.00D-03    CP:  9.86D-01  3.01D-01  3.71D-01  3.79D-01
 E= -5368.07568207507     Delta-E=       -1.774168828599 Rises=F Damp=F
 DIIS: error= 5.12D-02 at cycle   5 NSaved=   5.
 NSaved= 5 IEnMin= 5 EnMin= -5368.07568207507     IErMin= 5 ErrMin= 5.12D-02
 ErrMax= 5.12D-02  0.00D+00 EMaxC= 1.00D-01 BMatC= 1.45D+01 BMatP= 2.72D+01
 IDIUse=3 WtCom= 4.88D-01 WtEn= 5.12D-01
 Coeff-Com: -0.199D+00 0.419D+00 0.167D-01 0.198D+00 0.565D+00
 Coeff-En:   0.000D+00 0.000D+00 0.000D+00 0.295D+00 0.705D+00
 Coeff:     -0.972D-01 0.205D+00 0.816D-02 0.248D+00 0.636D+00
 Gap=     0.210 Goal=   None    Shift=    0.000
 Gap=     0.136 Goal=   None    Shift=    0.000
 RMSDP=9.60D-04 MaxDP=9.63D-02 DE=-1.77D+00 OVMax= 1.19D-01

 Cycle   6  Pass 1  IDiag  1:
 RMSU=  6.17D-04    CP:  9.80D-01  2.00D-01  2.85D-01  4.55D-01  3.83D-01
 E= -5368.59755328279     Delta-E=       -0.521871207724 Rises=F Damp=F
 DIIS: error= 1.49D-02 at cycle   6 NSaved=   6.
 NSaved= 6 IEnMin= 6 EnMin= -5368.59755328279     IErMin= 6 ErrMin= 1.49D-02
 ErrMax= 1.49D-02  0.00D+00 EMaxC= 1.00D-01 BMatC= 1.84D+00 BMatP= 1.45D+01
 IDIUse=3 WtCom= 8.51D-01 WtEn= 1.49D-01
 EnCoef did     4 forward-backward iterations
 Coeff-Com: -0.250D+00 0.341D+00 0.161D-02 0.634D-01 0.368D+00 0.476D+00
 Coeff-En:   0.000D+00 0.000D+00 0.000D+00 0.101D+00 0.218D-01 0.877D+00
 Coeff:     -0.213D+00 0.290D+00 0.137D-02 0.690D-01 0.317D+00 0.535D+00
 Gap=     0.199 Goal=   None    Shift=    0.000
 Gap=     0.148 Goal=   None    Shift=    0.000
 RMSDP=4.78D-04 MaxDP=4.35D-02 DE=-5.22D-01 OVMax= 5.53D-02

 Cycle   7  Pass 1  IDiag  1:
 RMSU=  2.62D-04    CP:  9.81D-01  2.63D-01  3.50D-01  4.79D-01  5.64D-01
                    CP:  6.15D-01
 E= -5368.66932679240     Delta-E=       -0.071773509606 Rises=F Damp=F
 DIIS: error= 1.81D-02 at cycle   7 NSaved=   7.
 NSaved= 7 IEnMin= 7 EnMin= -5368.66932679240     IErMin= 6 ErrMin= 1.49D-02
 ErrMax= 1.81D-02  0.00D+00 EMaxC= 1.00D-01 BMatC= 2.13D+00 BMatP= 1.84D+00
 IDIUse=2 WtCom= 0.00D+00 WtEn= 1.00D+00
 EnCoef did     2 forward-backward iterations
 Coeff-En:   0.000D+00 0.000D+00 0.000D+00 0.717D-01 0.000D+00 0.224D+00
 Coeff-En:   0.705D+00
 Coeff:      0.000D+00 0.000D+00 0.000D+00 0.717D-01 0.000D+00 0.224D+00
 Coeff:      0.705D+00
 Gap=     0.148 Goal=   None    Shift=    0.000
 Gap=     0.174 Goal=   None    Shift=    0.000
 RMSDP=3.70D-03 MaxDP=5.35D-01 DE=-7.18D-02 OVMax= 1.00D+00

 Cycle   8  Pass 1  IDiag  1:
 RMSU=  3.29D-03    CP:  9.67D-01  9.99D-01  2.49D-01  7.78D-01  1.52D-01
                    CP: -3.83D-02 -5.42D-01
 E= -5337.16733892781     Delta-E=       31.501987864589 Rises=F Damp=F
 DIIS: error= 2.39D-01 at cycle   8 NSaved=   8.
 NSaved= 8 IEnMin= 7 EnMin= -5368.66932679240     IErMin= 6 ErrMin= 1.49D-02
 ErrMax= 2.39D-01  0.00D+00 EMaxC= 1.00D-01 BMatC= 3.10D+02 BMatP= 1.84D+00
 IDIUse=2 WtCom= 0.00D+00 WtEn= 1.00D+00
 EnCoef did     2 forward-backward iterations
 Coeff-En:   0.000D+00 0.000D+00 0.000D+00 0.000D+00 0.000D+00 0.172D+00
 Coeff-En:   0.800D+00 0.279D-01
 Coeff:      0.000D+00 0.000D+00 0.000D+00 0.000D+00 0.000D+00 0.172D+00
 Coeff:      0.800D+00 0.279D-01
 Gap=     0.006 Goal=   None    Shift=    0.000
 Gap=     0.002 Goal=   None    Shift=    0.000
 RMSDP=3.20D-03 MaxDP=5.08D-01 DE= 3.15D+01 OVMax= 9.91D-01

 Cycle   9  Pass 1  IDiag  1:
 RMSU=  1.36D-03    CP:  9.72D-01  4.38D-01  2.99D-01  8.50D-01  1.19D-01
                    CP:  5.18D-02 -2.91D-01  1.84D-01
 E= -5362.88477534522     Delta-E=      -25.717436417410 Rises=F Damp=F
 DIIS: error= 1.30D-01 at cycle   9 NSaved=   9.
 NSaved= 9 IEnMin= 7 EnMin= -5368.66932679240     IErMin= 6 ErrMin= 1.49D-02
 ErrMax= 1.30D-01  0.00D+00 EMaxC= 1.00D-01 BMatC= 8.33D+01 BMatP= 1.84D+00
 IDIUse=2 WtCom= 0.00D+00 WtEn= 1.00D+00
 EnCoef did     3 forward-backward iterations
 Coeff-En:   0.000D+00 0.000D+00 0.000D+00 0.000D+00 0.000D+00 0.137D+00
 Coeff-En:   0.786D+00 0.000D+00 0.763D-01
 Coeff:      0.000D+00 0.000D+00 0.000D+00 0.000D+00 0.000D+00 0.137D+00
 Coeff:      0.786D+00 0.000D+00 0.763D-01
 Gap=    -0.044 Goal=   None    Shift=    0.000
 Gap=    -0.036 Goal=   None    Shift=    0.000
 RMSDP=1.72D-03 MaxDP=4.33D-01 DE=-2.57D+01 OVMax= 9.96D-01

 Cycle  10  Pass 1  IDiag  1:
 RMSU=  3.67D-04    CP:  9.77D-01  2.85D-01  3.01D-01  5.80D-01  5.08D-01
                    CP:  8.26D-01  5.78D-01  7.44D-03  3.71D-02
 E= -5368.73883119068     Delta-E=       -5.854055845461 Rises=F Damp=F
 DIIS: error= 1.85D-02 at cycle  10 NSaved=  10.
 NSaved=10 IEnMin=10 EnMin= -5368.73883119068     IErMin= 6 ErrMin= 1.49D-02
 ErrMax= 1.85D-02  0.00D+00 EMaxC= 1.00D-01 BMatC= 1.82D+00 BMatP= 1.84D+00
 IDIUse=3 WtCom= 8.51D-01 WtEn= 1.49D-01
 Coeff-Com: -0.444D-01 0.928D-01-0.696D-02-0.955D-02-0.255D-02-0.844D-02
 Coeff-Com:  0.505D+00 0.241D-03 0.514D-02 0.469D+00
 Coeff-En:   0.000D+00 0.000D+00 0.000D+00 0.000D+00 0.000D+00 0.000D+00
 Coeff-En:   0.354D+00 0.000D+00 0.000D+00 0.646D+00
 Coeff:     -0.378D-01 0.790D-01-0.592D-02-0.812D-02-0.217D-02-0.718D-02
 Coeff:      0.482D+00 0.205D-03 0.437D-02 0.495D+00
 Gap=     0.214 Goal=   None    Shift=    0.000
 Gap=     0.187 Goal=   None    Shift=    0.000
 RMSDP=2.38D-04 MaxDP=3.77D-02 DE=-5.85D+00 OVMax= 6.29D-02

 Cycle  11  Pass 1  IDiag  1:
 RMSU=  1.03D-04    CP:  9.79D-01  2.69D-01  3.12D-01  5.35D-01  5.28D-01
                    CP:  7.67D-01  8.55D-01  4.76D-03  2.14D-02  5.48D-01
 E= -5368.78803665291     Delta-E=       -0.049205462235 Rises=F Damp=F
 DIIS: error= 6.85D-03 at cycle  11 NSaved=  11.
 NSaved=11 IEnMin=11 EnMin= -5368.78803665291     IErMin=11 ErrMin= 6.85D-03
 ErrMax= 6.85D-03  0.00D+00 EMaxC= 1.00D-01 BMatC= 2.83D-01 BMatP= 1.82D+00
 IDIUse=3 WtCom= 9.31D-01 WtEn= 6.85D-02
 Coeff-Com: -0.141D-01 0.382D-01-0.320D-02-0.207D-02-0.213D-01-0.773D-01
 Coeff-Com:  0.124D+00 0.236D-03 0.112D-02 0.283D+00 0.672D+00
 Coeff-En:   0.000D+00 0.000D+00 0.000D+00 0.000D+00 0.000D+00 0.000D+00
 Coeff-En:   0.000D+00 0.000D+00 0.000D+00 0.223D+00 0.777D+00
 Coeff:     -0.131D-01 0.356D-01-0.298D-02-0.193D-02-0.198D-01-0.720D-01
 Coeff:      0.115D+00 0.220D-03 0.104D-02 0.279D+00 0.679D+00
 Gap=     0.179 Goal=   None    Shift=    0.000
 Gap=     0.177 Goal=   None    Shift=    0.000
 RMSDP=8.03D-05 MaxDP=1.31D-02 DE=-4.92D-02 OVMax= 7.52D-03

 Cycle  12  Pass 1  IDiag  1:
 RMSU=  4.87D-05    CP:  9.79D-01  2.76D-01  3.06D-01  5.48D-01  5.36D-01
                    CP:  7.51D-01  8.84D-01  6.49D-03  2.61D-02  6.75D-01
                    CP:  8.22D-01
 E= -5368.79960783367     Delta-E=       -0.011571180759 Rises=F Damp=F
 DIIS: error= 2.26D-03 at cycle  12 NSaved=  12.
 NSaved=12 IEnMin=12 EnMin= -5368.79960783367     IErMin=12 ErrMin= 2.26D-03
 ErrMax= 2.26D-03  0.00D+00 EMaxC= 1.00D-01 BMatC= 2.98D-02 BMatP= 2.83D-01
 IDIUse=3 WtCom= 9.77D-01 WtEn= 2.26D-02
 Coeff-Com:  0.257D-02 0.293D-02-0.542D-03 0.426D-02-0.104D-01-0.562D-01
 Coeff-Com: -0.908D-01 0.856D-04-0.767D-03 0.771D-01 0.389D+00 0.682D+00
 Coeff-En:   0.000D+00 0.000D+00 0.000D+00 0.000D+00 0.000D+00 0.000D+00
 Coeff-En:   0.000D+00 0.000D+00 0.000D+00 0.000D+00 0.000D+00 0.100D+01
 Coeff:      0.252D-02 0.287D-02-0.530D-03 0.416D-02-0.101D-01-0.549D-01
 Coeff:     -0.888D-01 0.836D-04-0.749D-03 0.754D-01 0.381D+00 0.690D+00
 Gap=     0.174 Goal=   None    Shift=    0.000
 Gap=     0.136 Goal=   None    Shift=    0.000
 RMSDP=5.29D-05 MaxDP=8.82D-03 DE=-1.16D-02 OVMax= 7.41D-03

 Cycle  13  Pass 1  IDiag  1:
 RMSU=  1.95D-05    CP:  9.78D-01  2.79D-01  3.03D-01  5.60D-01  5.27D-01
                    CP:  7.68D-01  8.90D-01  6.90D-03  2.81D-02  7.67D-01
                    CP:  9.89D-01  9.26D-01
 E= -5368.80171823053     Delta-E=       -0.002110396854 Rises=F Damp=F
 DIIS: error= 1.59D-04 at cycle  13 NSaved=  13.
 NSaved=13 IEnMin=13 EnMin= -5368.80171823053     IErMin=13 ErrMin= 1.59D-04
 ErrMax= 1.59D-04  0.00D+00 EMaxC= 1.00D-01 BMatC= 2.41D-04 BMatP= 2.98D-02
 IDIUse=3 WtCom= 9.98D-01 WtEn= 1.59D-03
 Coeff-Com:  0.202D-02-0.211D-02 0.140D-03 0.117D-02-0.189D-02-0.150D-01
 Coeff-Com: -0.518D-01 0.234D-04 0.632D-04-0.121D-02 0.725D-01 0.303D+00
 Coeff-Com:  0.693D+00
 Coeff-En:   0.000D+00 0.000D+00 0.000D+00 0.000D+00 0.000D+00 0.000D+00
 Coeff-En:   0.000D+00 0.000D+00 0.000D+00 0.000D+00 0.000D+00 0.000D+00
 Coeff-En:   0.100D+01
 Coeff:      0.201D-02-0.210D-02 0.140D-03 0.117D-02-0.189D-02-0.150D-01
 Coeff:     -0.517D-01 0.234D-04 0.631D-04-0.120D-02 0.724D-01 0.303D+00
 Coeff:      0.693D+00
 Gap=     0.155 Goal=   None    Shift=    0.000
 Gap=     0.135 Goal=   None    Shift=    0.000
 RMSDP=1.17D-05 MaxDP=1.10D-03 DE=-2.11D-03 OVMax= 1.73D-03

 Cycle  14  Pass 1  IDiag  1:
 RMSU=  8.52D-06    CP:  9.78D-01  2.80D-01  3.03D-01  5.61D-01  5.29D-01
                    CP:  7.68D-01  8.92D-01  7.13D-03  2.87D-02  7.76D-01
                    CP:  1.03D+00  1.01D+00  8.81D-01
 E= -5368.80176230217     Delta-E=       -0.000044071645 Rises=F Damp=F
 DIIS: error= 1.15D-04 at cycle  14 NSaved=  14.
 NSaved=14 IEnMin=14 EnMin= -5368.80176230217     IErMin=14 ErrMin= 1.15D-04
 ErrMax= 1.15D-04  0.00D+00 EMaxC= 1.00D-01 BMatC= 1.16D-04 BMatP= 2.41D-04
 IDIUse=3 WtCom= 9.99D-01 WtEn= 1.15D-03
 EnCoef did     5 forward-backward iterations
 Coeff-Com:  0.664D-03-0.114D-02 0.681D-04-0.502D-04 0.770D-03-0.143D-02
 Coeff-Com: -0.131D-01 0.260D-04 0.934D-04-0.369D-02 0.101D-02 0.807D-01
 Coeff-Com:  0.343D+00 0.593D+00
 Coeff-En:   0.000D+00 0.000D+00 0.000D+00 0.000D+00 0.000D+00 0.000D+00
 Coeff-En:   0.000D+00 0.000D+00 0.000D+00 0.000D+00 0.000D+00 0.000D+00
 Coeff-En:   0.578D-02 0.994D+00
 Coeff:      0.663D-03-0.114D-02 0.681D-04-0.501D-04 0.769D-03-0.143D-02
 Coeff:     -0.131D-01 0.260D-04 0.932D-04-0.368D-02 0.101D-02 0.807D-01
 Coeff:      0.342D+00 0.594D+00
 Gap=     0.156 Goal=   None    Shift=    0.000
 Gap=     0.136 Goal=   None    Shift=    0.000
 RMSDP=4.36D-06 MaxDP=5.51D-04 DE=-4.41D-05 OVMax= 8.83D-04

 Cycle  15  Pass 1  IDiag  1:
 RMSU=  3.63D-06    CP:  9.78D-01  2.80D-01  3.03D-01  5.61D-01  5.29D-01
                    CP:  7.68D-01  8.91D-01  7.15D-03  2.87D-02  7.74D-01
                    CP:  1.03D+00  1.02D+00  9.70D-01  8.85D-01
 E= -5368.80177467234     Delta-E=       -0.000012370168 Rises=F Damp=F
 DIIS: error= 6.43D-05 at cycle  15 NSaved=  15.
 NSaved=15 IEnMin=15 EnMin= -5368.80177467234     IErMin=15 ErrMin= 6.43D-05
 ErrMax= 6.43D-05  0.00D+00 EMaxC= 1.00D-01 BMatC= 3.13D-05 BMatP= 1.16D-04
 IDIUse=1 WtCom= 1.00D+00 WtEn= 0.00D+00
 Coeff-Com:  0.175D-03-0.493D-03 0.173D-04-0.782D-04 0.710D-03 0.131D-02
 Coeff-Com: -0.708D-03 0.155D-04-0.190D-04-0.188D-02-0.587D-02 0.131D-01
 Coeff-Com:  0.813D-01 0.309D+00 0.604D+00
 Coeff:      0.175D-03-0.493D-03 0.173D-04-0.782D-04 0.710D-03 0.131D-02
 Coeff:     -0.708D-03 0.155D-04-0.190D-04-0.188D-02-0.587D-02 0.131D-01
 Coeff:      0.813D-01 0.309D+00 0.604D+00
 Gap=     0.156 Goal=   None    Shift=    0.000
 Gap=     0.136 Goal=   None    Shift=    0.000
 RMSDP=2.57D-06 MaxDP=2.18D-04 DE=-1.24D-05 OVMax= 5.44D-04

 Cycle  16  Pass 1  IDiag  1:
 RMSU=  1.63D-06    CP:  9.78D-01  2.80D-01  3.03D-01  5.61D-01  5.30D-01
                    CP:  7.67D-01  8.88D-01  7.12D-03  2.85D-02  7.72D-01
                    CP:  1.03D+00  1.04D+00  1.01D+00  1.02D+00  9.62D-01
 E= -5368.80177851501     Delta-E=       -0.000003842666 Rises=F Damp=F
 DIIS: error= 3.32D-05 at cycle  16 NSaved=  16.
 NSaved=16 IEnMin=16 EnMin= -5368.80177851501     IErMin=16 ErrMin= 3.32D-05
 ErrMax= 3.32D-05  0.00D+00 EMaxC= 1.00D-01 BMatC= 7.68D-06 BMatP= 3.13D-05
 IDIUse=1 WtCom= 1.00D+00 WtEn= 0.00D+00
 Coeff-Com: -0.216D-03 0.245D-03 0.550D-05 0.305D-04-0.181D-03 0.997D-03
 Coeff-Com:  0.370D-02-0.105D-04-0.249D-04-0.476D-03 0.639D-04-0.140D-01
 Coeff-Com: -0.101D+00-0.136D+00 0.124D+00 0.112D+01
 Coeff:     -0.216D-03 0.245D-03 0.550D-05 0.305D-04-0.181D-03 0.997D-03
 Coeff:      0.370D-02-0.105D-04-0.249D-04-0.476D-03 0.639D-04-0.140D-01
 Coeff:     -0.101D+00-0.136D+00 0.124D+00 0.112D+01
 Gap=     0.157 Goal=   None    Shift=    0.000
 Gap=     0.137 Goal=   None    Shift=    0.000
 RMSDP=2.51D-06 MaxDP=3.28D-04 DE=-3.84D-06 OVMax= 7.05D-04

 Cycle  17  Pass 1  IDiag  1:
 RMSU=  7.87D-07    CP:  9.78D-01  2.80D-01  3.03D-01  5.60D-01  5.30D-01
                    CP:  7.67D-01  8.88D-01  7.12D-03  2.85D-02  7.70D-01
                    CP:  1.03D+00  1.06D+00  1.04D+00  1.16D+00  1.32D+00
                    CP:  1.44D+00
 E= -5368.80178009989     Delta-E=       -0.000001584882 Rises=F Damp=F
 DIIS: error= 1.34D-05 at cycle  17 NSaved=  17.
 NSaved=17 IEnMin=17 EnMin= -5368.80178009989     IErMin=17 ErrMin= 1.34D-05
 ErrMax= 1.34D-05  0.00D+00 EMaxC= 1.00D-01 BMatC= 1.35D-06 BMatP= 7.68D-06
 IDIUse=1 WtCom= 1.00D+00 WtEn= 0.00D+00
 Coeff-Com: -0.852D-04 0.130D-03-0.113D-05 0.249D-04-0.184D-03 0.243D-03
 Coeff-Com:  0.172D-02-0.672D-05-0.840D-05-0.809D-04-0.270D-03-0.106D-01
 Coeff-Com: -0.629D-01-0.109D+00-0.403D-01 0.519D+00 0.703D+00
 Coeff:     -0.852D-04 0.130D-03-0.113D-05 0.249D-04-0.184D-03 0.243D-03
 Coeff:      0.172D-02-0.672D-05-0.840D-05-0.809D-04-0.270D-03-0.106D-01
 Coeff:     -0.629D-01-0.109D+00-0.403D-01 0.519D+00 0.703D+00
 Gap=     0.157 Goal=   None    Shift=    0.000
 Gap=     0.137 Goal=   None    Shift=    0.000
 RMSDP=8.94D-07 MaxDP=9.59D-05 DE=-1.58D-06 OVMax= 2.05D-04

 Cycle  18  Pass 1  IDiag  1:
 RMSU=  3.90D-07    CP:  9.78D-01  2.80D-01  3.03D-01  5.60D-01  5.30D-01
                    CP:  7.67D-01  8.88D-01  7.13D-03  2.85D-02  7.70D-01
                    CP:  1.04D+00  1.07D+00  1.05D+00  1.20D+00  1.43D+00
                    CP:  1.68D+00  9.07D-01
 E= -5368.80178032847     Delta-E=       -0.000000228581 Rises=F Damp=F
 DIIS: error= 7.60D-06 at cycle  18 NSaved=  18.
 NSaved=18 IEnMin=18 EnMin= -5368.80178032847     IErMin=18 ErrMin= 7.60D-06
 ErrMax= 7.60D-06  0.00D+00 EMaxC= 1.00D-01 BMatC= 3.80D-07 BMatP= 1.35D-06
 IDIUse=1 WtCom= 1.00D+00 WtEn= 0.00D+00
 Coeff-Com:  0.724D-05 0.795D-05-0.133D-05 0.638D-07-0.522D-04-0.904D-04
 Coeff-Com:  0.738D-04-0.102D-05-0.153D-06-0.190D-04-0.891D-03-0.314D-02
 Coeff-Com: -0.810D-02-0.180D-01-0.398D-01 0.115D-02 0.346D+00 0.723D+00
 Coeff:      0.724D-05 0.795D-05-0.133D-05 0.638D-07-0.522D-04-0.904D-04
 Coeff:      0.738D-04-0.102D-05-0.153D-06-0.190D-04-0.891D-03-0.314D-02
 Coeff:     -0.810D-02-0.180D-01-0.398D-01 0.115D-02 0.346D+00 0.723D+00
 Gap=     0.157 Goal=   None    Shift=    0.000
 Gap=     0.137 Goal=   None    Shift=    0.000
 RMSDP=3.34D-07 MaxDP=5.33D-05 DE=-2.29D-07 OVMax= 6.81D-05

 Cycle  19  Pass 1  IDiag  1:
 RMSU=  1.72D-07    CP:  9.78D-01  2.80D-01  3.03D-01  5.60D-01  5.30D-01
                    CP:  7.67D-01  8.88D-01  7.13D-03  2.85D-02  7.70D-01
                    CP:  1.04D+00  1.07D+00  1.05D+00  1.21D+00  1.46D+00
                    CP:  1.75D+00  1.07D+00  1.02D+00
 E= -5368.80178037832     Delta-E=       -0.000000049851 Rises=F Damp=F
 DIIS: error= 1.36D-06 at cycle  19 NSaved=  19.
 NSaved=19 IEnMin=19 EnMin= -5368.80178037832     IErMin=19 ErrMin= 1.36D-06
 ErrMax= 1.36D-06  0.00D+00 EMaxC= 1.00D-01 BMatC= 1.15D-08 BMatP= 3.80D-07
 IDIUse=1 WtCom= 1.00D+00 WtEn= 0.00D+00
 Coeff-Com:  0.787D-05-0.377D-05-0.133D-05-0.702D-05 0.924D-05-0.623D-04
 Coeff-Com: -0.113D-03 0.150D-06 0.786D-06 0.419D-04-0.413D-03-0.287D-03
 Coeff-Com:  0.440D-02 0.648D-02-0.100D-01-0.655D-01 0.465D-01 0.303D+00
 Coeff-Com:  0.716D+00
 Coeff:      0.787D-05-0.377D-05-0.133D-05-0.702D-05 0.924D-05-0.623D-04
 Coeff:     -0.113D-03 0.150D-06 0.786D-06 0.419D-04-0.413D-03-0.287D-03
 Coeff:      0.440D-02 0.648D-02-0.100D-01-0.655D-01 0.465D-01 0.303D+00
 Coeff:      0.716D+00
 Gap=     0.157 Goal=   None    Shift=    0.000
 Gap=     0.137 Goal=   None    Shift=    0.000
 RMSDP=1.08D-07 MaxDP=1.71D-05 DE=-4.99D-08 OVMax= 2.54D-05

 Cycle  20  Pass 1  IDiag  1:
 RMSU=  7.32D-08    CP:  9.78D-01  2.80D-01  3.03D-01  5.60D-01  5.30D-01
                    CP:  7.67D-01  8.88D-01  7.13D-03  2.85D-02  7.70D-01
                    CP:  1.04D+00  1.07D+00  1.05D+00  1.21D+00  1.46D+00
                    CP:  1.77D+00  1.13D+00  1.14D+00  1.01D+00
 E= -5368.80178038336     Delta-E=       -0.000000005035 Rises=F Damp=F
 DIIS: error= 6.61D-07 at cycle  20 NSaved=  20.
 NSaved=20 IEnMin=20 EnMin= -5368.80178038336     IErMin=20 ErrMin= 6.61D-07
 ErrMax= 6.61D-07  0.00D+00 EMaxC= 1.00D-01 BMatC= 3.19D-09 BMatP= 1.15D-08
 IDIUse=1 WtCom= 1.00D+00 WtEn= 0.00D+00
 Coeff-Com: -0.133D-06-0.790D-06-0.185D-06-0.320D-05 0.164D-04-0.795D-05
 Coeff-Com: -0.561D-04 0.140D-06 0.371D-06 0.268D-04 0.304D-04 0.529D-03
 Coeff-Com:  0.340D-02 0.573D-02 0.329D-02-0.279D-01-0.522D-01-0.193D-01
 Coeff-Com:  0.304D+00 0.783D+00
 Coeff:     -0.133D-06-0.790D-06-0.185D-06-0.320D-05 0.164D-04-0.795D-05
 Coeff:     -0.561D-04 0.140D-06 0.371D-06 0.268D-04 0.304D-04 0.529D-03
 Coeff:      0.340D-02 0.573D-02 0.329D-02-0.279D-01-0.522D-01-0.193D-01
 Coeff:      0.304D+00 0.783D+00
 Gap=     0.157 Goal=   None    Shift=    0.000
 Gap=     0.137 Goal=   None    Shift=    0.000
 RMSDP=6.35D-08 MaxDP=1.08D-05 DE=-5.03D-09 OVMax= 1.55D-05

 Cycle  21  Pass 1  IDiag  1:
 Restarting incremental Fock formation.
 E= -5368.80178038495     Delta-E=       -0.000000001593 Rises=F Damp=F
 DIIS: error= 3.71D-07 at cycle  21 NSaved=  20.
 NSaved=20 IEnMin=20 EnMin= -5368.80178038495     IErMin=20 ErrMin= 3.71D-07
 ErrMax= 3.71D-07  0.00D+00 EMaxC= 1.00D-01 BMatC= 8.31D-10 BMatP= 3.19D-09
 IDIUse=1 WtCom= 1.00D+00 WtEn= 0.00D+00
 Coeff-Com: -0.292D-05 0.150D-05 0.207D-06-0.162D-06 0.683D-05 0.952D-05
 Coeff-Com: -0.817D-05 0.303D-06 0.317D-05 0.128D-03 0.422D-03 0.855D-03
 Coeff-Com:  0.169D-02 0.419D-02 0.836D-03-0.385D-01-0.814D-01-0.151D-01
 Coeff-Com:  0.421D+00 0.705D+00
 Coeff:     -0.292D-05 0.150D-05 0.207D-06-0.162D-06 0.683D-05 0.952D-05
 Coeff:     -0.817D-05 0.303D-06 0.317D-05 0.128D-03 0.422D-03 0.855D-03
 Coeff:      0.169D-02 0.419D-02 0.836D-03-0.385D-01-0.814D-01-0.151D-01
 Coeff:      0.421D+00 0.705D+00
 Gap=     0.157 Goal=   None    Shift=    0.000
 Gap=     0.137 Goal=   None    Shift=    0.000
 RMSDP=3.36D-08 MaxDP=5.10D-06 DE=-1.59D-09 OVMax= 1.07D-05

 Cycle  22  Pass 1  IDiag  1:
 RMSU=  3.36D-08    CP:  1.00D+00
 E= -5368.80178038546     Delta-E=       -0.000000000507 Rises=F Damp=F
 DIIS: error= 1.44D-07 at cycle  22 NSaved=  20.
 NSaved=20 IEnMin=20 EnMin= -5368.80178038546     IErMin=20 ErrMin= 1.44D-07
 ErrMax= 1.44D-07  0.00D+00 EMaxC= 1.00D-01 BMatC= 1.95D-10 BMatP= 8.31D-10
 IDIUse=1 WtCom= 1.00D+00 WtEn= 0.00D+00
 Coeff-Com: -0.549D-07-0.394D-06 0.316D-06-0.706D-06 0.329D-05 0.779D-05
 Coeff-Com:  0.118D-06 0.171D-05 0.269D-04 0.398D-04-0.349D-03-0.247D-03
 Coeff-Com:  0.629D-03 0.477D-02-0.360D-02-0.243D-01-0.634D-01-0.189D-02
 Coeff-Com:  0.230D+00 0.858D+00
 Coeff:     -0.549D-07-0.394D-06 0.316D-06-0.706D-06 0.329D-05 0.779D-05
 Coeff:      0.118D-06 0.171D-05 0.269D-04 0.398D-04-0.349D-03-0.247D-03
 Coeff:      0.629D-03 0.477D-02-0.360D-02-0.243D-01-0.634D-01-0.189D-02
 Coeff:      0.230D+00 0.858D+00
 Gap=     0.157 Goal=   None    Shift=    0.000
 Gap=     0.137 Goal=   None    Shift=    0.000
 RMSDP=1.64D-08 MaxDP=2.60D-06 DE=-5.07D-10 OVMax= 5.36D-06

 Cycle  23  Pass 1  IDiag  1:
 RMSU=  1.15D-08    CP:  1.00D+00  1.35D+00
 E= -5368.80178038562     Delta-E=       -0.000000000166 Rises=F Damp=F
 DIIS: error= 9.61D-08 at cycle  23 NSaved=  20.
 NSaved=20 IEnMin=20 EnMin= -5368.80178038562     IErMin=20 ErrMin= 9.61D-08
 ErrMax= 9.61D-08  0.00D+00 EMaxC= 1.00D-01 BMatC= 3.39D-11 BMatP= 1.95D-10
 IDIUse=1 WtCom= 1.00D+00 WtEn= 0.00D+00
 Coeff-Com:  0.352D-06-0.144D-06 0.166D-06-0.191D-05 0.545D-06 0.741D-05
 Coeff-Com: -0.345D-06-0.128D-04-0.641D-04-0.363D-03-0.415D-03-0.651D-03
 Coeff-Com:  0.251D-02 0.563D-02 0.337D-02-0.269D-01-0.800D-01-0.375D-01
 Coeff-Com:  0.412D+00 0.722D+00
 Coeff:      0.352D-06-0.144D-06 0.166D-06-0.191D-05 0.545D-06 0.741D-05
 Coeff:     -0.345D-06-0.128D-04-0.641D-04-0.363D-03-0.415D-03-0.651D-03
 Coeff:      0.251D-02 0.563D-02 0.337D-02-0.269D-01-0.800D-01-0.375D-01
 Coeff:      0.412D+00 0.722D+00
 Gap=     0.157 Goal=   None    Shift=    0.000
 Gap=     0.137 Goal=   None    Shift=    0.000
 RMSDP=7.34D-09 MaxDP=1.05D-06 DE=-1.66D-10 OVMax= 2.12D-06

 Cycle  24  Pass 1  IDiag  1:
 RMSU=  5.11D-09    CP:  1.00D+00  1.49D+00  1.20D+00
 E= -5368.80178038543     Delta-E=        0.000000000187 Rises=F Damp=F
 DIIS: error= 4.11D-08 at cycle  24 NSaved=  20.
 NSaved=20 IEnMin=19 EnMin= -5368.80178038562     IErMin=20 ErrMin= 4.11D-08
 ErrMax= 4.11D-08  0.00D+00 EMaxC= 1.00D-01 BMatC= 1.15D-11 BMatP= 3.39D-11
 IDIUse=1 WtCom= 1.00D+00 WtEn= 0.00D+00
 Coeff-Com:  0.257D-06-0.295D-07-0.815D-06 0.232D-06 0.411D-05-0.463D-06
 Coeff-Com: -0.121D-04-0.490D-04-0.173D-03-0.211D-03-0.564D-03 0.836D-03
 Coeff-Com:  0.395D-02 0.620D-02-0.322D-02-0.453D-01-0.713D-01 0.633D-01
 Coeff-Com:  0.426D+00 0.620D+00
 Coeff:      0.257D-06-0.295D-07-0.815D-06 0.232D-06 0.411D-05-0.463D-06
 Coeff:     -0.121D-04-0.490D-04-0.173D-03-0.211D-03-0.564D-03 0.836D-03
 Coeff:      0.395D-02 0.620D-02-0.322D-02-0.453D-01-0.713D-01 0.633D-01
 Coeff:      0.426D+00 0.620D+00
 Gap=     0.157 Goal=   None    Shift=    0.000
 Gap=     0.137 Goal=   None    Shift=    0.000
 RMSDP=3.11D-09 MaxDP=3.48D-07 DE= 1.87D-10 OVMax= 6.95D-07

 Error on total polarization charges =  0.03123
 SCF Done:  E(UMN15) =  -5368.80178039     A.U. after   24 cycles
            NFock= 24  Conv=0.31D-08     -V/T= 2.0908
 <Sx>= 0.0000 <Sy>= 0.0000 <Sz>= 0.5000 <S**2>= 0.7548 S= 0.5024
 <L.S>=  0.00000000000    
 KE= 4.921897944251D+03 PE=-3.584765090775D+04 EE= 1.402267406173D+04
 SMD-CDS (non-electrostatic) energy       (kcal/mol) =       4.17
 (included in total energy above)
 Annihilation of the first spin contaminant:
 S**2 before annihilation     0.7548,   after     0.7500
 Leave Link  502 at Wed Feb 19 03:32:37 2025, MaxMem= 82678120448 cpu:           52052.6 elap:            2174.9
 (Enter /sysapps/ubuntu-applications/gaussian-new/avx/g16/l801.exe)
 DoSCS=F DFT=T ScalE2(SS,OS)=  1.000000  1.000000
 Range of M.O.s used for correlation:     1   916
 NBasis=   916 NAE=   230 NBE=   229 NFC=     0 NFV=     0
 NROrb=    916 NOA=   230 NOB=   229 NVA=   686 NVB=   687

 **** Warning!!: The largest alpha MO coefficient is  0.12748444D+02


 **** Warning!!: The largest beta MO coefficient is  0.12748441D+02

 Leave Link  801 at Wed Feb 19 03:32:38 2025, MaxMem= 82678120448 cpu:               2.5 elap:               0.1
 (Enter /sysapps/ubuntu-applications/gaussian-new/avx/g16/l1101.exe)
 Using compressed storage, NAtomX=    69.
 Will process     70 centers per pass.
   1 Symmetry operations used in ECPInt.
 ECPInt:  NShTT=   77815 NPrTT=  297642 LenC2=   59620 LenP2D=  137889.
 LDataN:  DoStor=T MaxTD1=10 Len=  848
 Leave Link 1101 at Wed Feb 19 03:32:58 2025, MaxMem= 82678120448 cpu:             494.3 elap:              20.6
 (Enter /sysapps/ubuntu-applications/gaussian-new/avx/g16/l1102.exe)
 Symmetrizing basis deriv contribution to polar:
 IMax=3 JMax=2 DiffMx= 0.00D+00
 Leave Link 1102 at Wed Feb 19 03:32:59 2025, MaxMem= 82678120448 cpu:               7.5 elap:               0.4
 (Enter /sysapps/ubuntu-applications/gaussian-new/avx/g16/l1110.exe)
 Forming Gx(P) for the SCF density, NAtomX=    69.
 Integral derivatives from FoFJK, PRISM(SPDF).
 Do as many integral derivatives as possible in FoFJK.
 G2DrvN: MDV=   82678114654.
 G2DrvN: will do    70 centers at a time, making    1 passes.
 Calling FoFCou, ICntrl=  3107 FMM=T I1Cent=   0 AccDes= 0.00D+00.
 FoFJK:  IHMeth= 1 ICntrl=    3107 DoSepK=F KAlg= 0 I1Cent=           0 FoldK=F
 IRaf=         0 NMat=       1 IRICut=       1 DoRegI=T DoRafI=F ISym2E= 0 IDoP0=0 IntGTp=1.
 FoFCou: FMM=T IPFlag=           0 FMFlag=      100000 FMFlg1=        2001
         NFxFlg=           0 DoJE=F BraDBF=F KetDBF=F FulRan=T
         wScrn=  0.000000 ICntrl=      3107 IOpCl=  1 I1Cent=           0 NGrid=           0
         NMat0=    1 NMatS0=      1 NMatT0=    0 NMatD0=    1 NMtDS0=    0 NMtDT0=    0
 Symmetry not used in FoFCou.
 FMM levels:  10  Number of levels for PrismC:   9
 Defaulting to unpruned grid for atomic number  70.
 Defaulting to unpruned grid for atomic number  70.
 Defaulting to unpruned grid for atomic number  70.
 Defaulting to unpruned grid for atomic number  70.
 Defaulting to unpruned grid for atomic number  70.
 Defaulting to unpruned grid for atomic number  70.
 Defaulting to unpruned grid for atomic number  70.
 Defaulting to unpruned grid for atomic number  70.
 Defaulting to unpruned grid for atomic number  70.
 Defaulting to unpruned grid for atomic number  70.
 Defaulting to unpruned grid for atomic number  70.
 Defaulting to unpruned grid for atomic number  70.
 Defaulting to unpruned grid for atomic number  70.
 Defaulting to unpruned grid for atomic number  70.
 Defaulting to unpruned grid for atomic number  70.
 Defaulting to unpruned grid for atomic number  70.
 Defaulting to unpruned grid for atomic number  70.
 Defaulting to unpruned grid for atomic number  70.
 Defaulting to unpruned grid for atomic number  70.
 Defaulting to unpruned grid for atomic number  70.
 Defaulting to unpruned grid for atomic number  70.
 Defaulting to unpruned grid for atomic number  70.
 Defaulting to unpruned grid for atomic number  70.
 Defaulting to unpruned grid for atomic number  70.
 NEqPCM:  Using equilibrium solvation (IEInf=0, Eps=  10.1250, EpsInf=   2.0874)
 G2PCM: DoFxE=T DoFxN=T DoGrad=T DoDP/DQ/DG/TGxP=FFFF NFrqRd=   0 IEInf=0 SqF1=F DoCFld=F IF1Alg=4.
 GePol: Maximum number of non-zero 1st derivatives   =     264
 End of G2Drv F.D. properties file   721 does not exist.
 End of G2Drv F.D. properties file   722 does not exist.
 End of G2Drv F.D. properties file   788 does not exist.
 Leave Link 1110 at Wed Feb 19 04:57:30 2025, MaxMem= 82678120448 cpu:          121699.1 elap:            5071.2
 (Enter /sysapps/ubuntu-applications/gaussian-new/avx/g16/l1002.exe)
 Minotr:  UHF open shell wavefunction.
          IDoAtm=11111111111111111111111111111111111111111111111111
          IDoAtm=1111111111111111111
 NEqPCM:  Using equilibrium solvation (IEInf=0, Eps=  10.1250, EpsInf=   2.0874)
          Direct CPHF calculation.
          Differentiating once with respect to electric field.
                with respect to dipole field.
          Differentiating once with respect to nuclear coordinates.
          Requested convergence is 1.0D-08 RMS, and 1.0D-07 maximum.
          Secondary convergence is 1.0D-12 RMS, and 1.0D-12 maximum.
          NewPWx=T KeepS1=F KeepF1=F KeepIn=T MapXYZ=F SortEE=F KeepMc=T.
 Defaulting to unpruned grid for atomic number  70.
        21431 words used for storage of precomputed grid.
 Two-electron integrals replicated using symmetry.
          MDV=   82678120448 using IRadAn=       1.
          Solving linear equations simultaneously, MaxMat=      72.
 FoF2E skips out because all densities are zero.
 CalDSu exits because no D1Ps are significant.
 FoFJK:  IHMeth= 1 ICntrl=       0 DoSepK=F KAlg= 0 I1Cent=           0 FoldK=F
 IRaf= 780000000 NMat=      72 IRICut=       1 DoRegI=T DoRafI=F ISym2E= 2 IDoP0=3 IntGTp=3.
 Defaulting to unpruned grid for atomic number  70.
 Defaulting to unpruned grid for atomic number  70.
 Defaulting to unpruned grid for atomic number  70.
 Defaulting to unpruned grid for atomic number  70.
 Defaulting to unpruned grid for atomic number  70.
 Defaulting to unpruned grid for atomic number  70.
 Defaulting to unpruned grid for atomic number  70.
 Defaulting to unpruned grid for atomic number  70.
 Defaulting to unpruned grid for atomic number  70.
 Defaulting to unpruned grid for atomic number  70.
 Defaulting to unpruned grid for atomic number  70.
 Defaulting to unpruned grid for atomic number  70.
 Defaulting to unpruned grid for atomic number  70.
 Defaulting to unpruned grid for atomic number  70.
 Defaulting to unpruned grid for atomic number  70.
 Defaulting to unpruned grid for atomic number  70.
 Defaulting to unpruned grid for atomic number  70.
 Defaulting to unpruned grid for atomic number  70.
 Defaulting to unpruned grid for atomic number  70.
 Defaulting to unpruned grid for atomic number  70.
 Defaulting to unpruned grid for atomic number  70.
 Defaulting to unpruned grid for atomic number  70.
 Defaulting to unpruned grid for atomic number  70.
 Defaulting to unpruned grid for atomic number  70.
          There are   210 degrees of freedom in the 1st order CPHF.  IDoFFX=6 NUNeed=     3.
    208 vectors produced by pass  0 Test12= 3.15D-13 1.00D-09 XBig12= 4.96D+02 4.01D+00.
 AX will form    72 AO Fock derivatives at one time.
    207 vectors produced by pass  1 Test12= 3.15D-13 1.00D-09 XBig12= 1.06D+02 9.25D-01.
    207 vectors produced by pass  2 Test12= 3.15D-13 1.00D-09 XBig12= 4.60D+00 3.28D-01.
    207 vectors produced by pass  3 Test12= 3.15D-13 1.00D-09 XBig12= 1.03D-01 2.72D-02.
    207 vectors produced by pass  4 Test12= 3.15D-13 1.00D-09 XBig12= 1.45D-03 3.08D-03.
    207 vectors produced by pass  5 Test12= 3.15D-13 1.00D-09 XBig12= 1.49D-05 2.26D-04.
    203 vectors produced by pass  6 Test12= 3.15D-13 1.00D-09 XBig12= 1.62D-07 3.68D-05.
    120 vectors produced by pass  7 Test12= 3.15D-13 1.00D-09 XBig12= 1.42D-09 2.98D-06.
     34 vectors produced by pass  8 Test12= 3.15D-13 1.00D-09 XBig12= 1.39D-11 2.03D-07.
      3 vectors produced by pass  9 Test12= 3.15D-13 1.00D-09 XBig12= 1.90D-13 2.46D-08.
      3 vectors produced by pass 10 Test12= 3.15D-13 1.00D-09 XBig12= 4.08D-15 3.64D-09.
      2 vectors produced by pass 11 Test12= 3.15D-13 1.00D-09 XBig12= 1.84D-15 1.48D-09.
[...]
 -0.00049099,-0.00004448,-0.00086304,-0.00006094,-0.00004120,-0.0000529
 2,0.00047940,0.00059911,-0.00081055,-0.00533721,-0.00104261,0.02566519
 ,0.00698677,0.00055812,0.00172752,0.00087303,-0.05332772,0.02460304,-0
 .00880240,0.04850790,-0.00008320,-0.00007459,0.00001254,-0.00001681,0.
 00000788,-0.00004059,0.00001179,-0.00000621,-0.00002244,0.00000959,-0.
 00001552,-0.00000485,0.00001741,-0.00000030,-0.00000006,0.00001822,-0.
 00003315,0.00002951,0.00033786,0.00020011,0.00001361,0.00008491,0.0000
 8893,-0.00006324,0.00004161,-0.00005935,0.00030549,-0.00000687,0.00000
 117,-0.00000056,0.00000508,-0.00000427,-0.00000099,0.00000016,-0.00000
 399,-0.00000090,0.00000305,-0.00000723,-0.00000663,-0.00000503,0.00000
 126,0.00001938,-0.00004899,0.00000586,-0.00008396,-0.00011302,-0.00005
 263,0.00002915,-0.00004197,-0.00005538,0.00004469,0.00003699,0.0001103
 7,-0.00017629,0.00001199,0.00002106,-0.00005837,-0.00000359,-0.0000313
 4,0.00004764,0.00000115,0.00000447,0.00000291,0.00000212,0.00000299,0.
 00000411,-0.00000273,-0.00000580,0.00000581,-0.00000218,-0.00000424,-0
 .00001956,-0.00000442,0.00001034,-0.00001109,-0.00000906,-0.00000573,-
 0.00000833,-0.00001931,0.00001436,-0.00003764,-0.00009840,-0.00004145,
 0.00000216,-0.00001694,-0.00001300,-0.00000118,0.00002699,0.00001983,0
 .00000375,0.00001188,-0.00003025,0.00005896,0.00026585,0.00003322,-0.0
 0002062,-0.00001178,-0.00001163,-0.00000130,-0.00001182,-0.00000797,-0
 .00000422,-0.00001083,0.00001503,-0.00001911,0.00000429,0.00001370,-0.
 00002729,-0.00010042,-0.00002146,0.00003856,-0.00012910,-0.00003094,-0
 .00000134,0.00010170,-0.00005353,-0.00001021,0.00000588,-0.00001017,0.
 00001132,0.00001395,0.00001423,-0.00000002,-0.00005626,0.00001021,0.00
 000727,-0.00005967,0.00001920,-0.00001478,-0.00001944,0.00002785,0.000
 01781,-0.00000004,0.00000283,-0.00001104,-0.00000088,0.00000630,-0.000
 00225,-0.00000692,0.00000158,-0.00000396,-0.00001037,-0.00000800,-0.00
 000258,-0.00000532,-0.00000241,0.00000382,-0.00000067,-0.00000566,-0.0
 0000031,0.00021208,0.00029038,0.00000955,-0.00001487,-0.00001937,-0.00
 000722,-0.00003841,-0.00142392,-0.00025157,-0.00009628,0.00004574,-0.0
 0011709,0.00069775,-0.00073168,0.00176486,0.00040629,0.00319911,-0.001
 66013,0.00080178,-0.00127543,0.00009822,0.00144599,0.00053878,-0.00031
 338,-0.00084386,-0.00023982,0.00036434,-0.00014825,-0.00021067,-0.0000
 9187,-0.00025519,0.00001667,-0.00011574,0.00007639,-0.00001772,0.00006
 932,0.00014011,-0.00087013,0.00188333,0.00162478,0.00314439,-0.0124839
 5,-0.00020645,0.00170604,0.00440097,0.06295979,0.02934981,-0.35014591,
 -0.06694404,-0.03331169,0.35652211,0.00038401,0.00025424,0.00033877,0.
 00003133,-0.00007673,-0.00031851,0.00004318,-0.00009534,0.00002870,0.0
 0003416,-0.00006596,-0.00002143,0.00006401,-0.00001601,0.00008036,0.00
 006953,-0.00001918,-0.00003564,-0.00413186,-0.00236825,-0.00012637,-0.
 02150807,-0.00408389,-0.00665171,-0.01909020,-0.00614836,0.00918057,-0
 .00002200,0.00001988,0.00001215,0.00003323,-0.00003950,-0.00000956,0.0
 0002156,-0.00002810,-0.00000676,0.00000459,-0.00002053,-0.00003182,-0.
 00019346,0.00008758,0.00021522,-0.00667456,0.00379867,0.01022697,-0.00
 339163,0.00796716,-0.00320127,0.00583033,0.00146710,0.00831087,0.00443
 640,0.00464210,-0.00780851,0.00047905,0.00108675,-0.00316786,0.0013221
 6,-0.00085526,0.00310352,0.00015591,-0.00004421,0.00029757,-0.00003345
 ,-0.00023547,-0.00007872,-0.00019124,-0.00013909,0.00028092,0.00004100
 ,0.00010567,-0.00030229,-0.00031687,0.00009069,-0.00030779,-0.00003474
 ,-0.00010187,-0.00023638,-0.00910617,-0.00447703,-0.00082620,-0.008554
 72,0.00466732,0.00394956,-0.00670404,0.00196782,0.00080660,-0.00886412
 ,-0.03573341,-0.00179110,0.00632712,0.02416960,-0.00794827,0.00861671,
 -0.00969950,-0.01931046,-0.01920426,0.00696913,0.00610828,0.00307923,0
 .00607140,0.00155408,-0.00956940,-0.00547449,-0.00345447,-0.00174249,-
 0.00392472,0.00293371,-0.00310515,0.00741372,0.00838169,-0.00082546,0.
 00093016,0.00381407,0.00247769,-0.00280219,0.00169089,-0.00319428,0.00
 464359,-0.00510615,0.00291590,-0.00221788,0.00689351,-0.00037837,0.000
 65777,-0.00013608,-0.00230234,0.00071791,-0.00096295,-0.00057915,0.001
 62517,0.00054302,0.00334327,-0.00315952,0.00194992,0.00050906,-0.00294
 451,0.00000787,0.00103863,-0.00029120,0.00109018,-0.00248347,0.0000873
 4,-0.00198844,0.00028011,0.00072981,-0.00244459,-0.00171314,0.00329504
 ,-0.00190460,-0.00293877,0.00031346,-0.00143259,-0.00015513,-0.0000381
 9,0.00022682,-0.00009182,-0.00013762,0.00009088,-0.00008116,0.00018047
 ,-0.00008797,-0.00015189,-0.00005500,0.00011878,-0.00000051,-0.0002086
 8,-0.00001113,-0.00028932,-0.00013341,-0.00025236,-0.00009702,-0.00017
 015,0.00001883,0.00000059,-0.00006470,0.00003816,-0.00002972,0.0000076
 1,-0.00006487,-0.00001490,-0.00011674,-0.00004506,0.00012066,-0.000043
 27,0.00007055,0.00010191,0.00003894,-0.00008479,-0.00004251,-0.0001581
 1,0.00002786,0.00003849,0.00017419,-0.00011840,-0.00019430,-0.00023494
 ,0.00010927,-0.00003233,-0.00009014,0.00008056,0.08956428,-0.00009579,
 -0.00007025,-0.00003168,-0.00001569,0.00000567,0.00003688,-0.00000429,
 -0.00000187,-0.00000796,-0.00000111,-0.00000775,-0.00000227,-0.0000074
 2,-0.00002261,-0.00001190,-0.00003210,-0.00001288,-0.00000389,0.000177
 29,0.00012584,0.00060825,0.00953448,0.00641003,0.00159292,0.00010100,0
 .00193005,-0.00089086,0.00001051,0.00000790,-0.00000123,0.00000456,0.0
 0000716,-0.00000037,0.00000476,0.00000639,-0.00000129,0.00001020,0.000
 00992,-0.00000429,0.00002708,0.00001748,-0.00002297,0.00327308,-0.0041
 0836,-0.00278972,0.00284135,-0.00930902,0.00206040,-0.00383144,-0.0017
 5704,-0.00377002,-0.00121728,-0.00072307,0.00171221,-0.00047954,-0.000
 11896,0.00116381,-0.00050613,0.00045944,-0.00042828,-0.00005006,-0.000
 01584,-0.00009142,0.00014881,0.00060775,-0.00017605,0.00028083,-0.0000
 9748,-0.00010069,0.00007171,-0.00007741,0.00001479,0.00010281,-0.00009
 453,0.00001492,-0.00008749,-0.00003857,0.00038897,-0.00646881,-0.01148
 467,-0.00351720,0.00568256,-0.01089674,-0.00798056,0.00349322,-0.01536
 060,-0.00649391,-0.03485720,-0.01687259,0.01216859,0.02233706,-0.00661
 774,0.02969581,-0.01189718,-0.01354267,-0.02011865,0.00504581,-0.00808
 850,-0.00120889,0.00735331,0.00365780,-0.00064602,-0.00300077,-0.00839
 313,-0.00257518,-0.00235152,0.00124287,-0.00720532,0.00579754,0.001450
 07,0.00492446,0.00369274,0.00204033,0.00571110,-0.00084003,-0.00659170
 ,-0.00204568,0.00539559,-0.00577467,0.00120324,-0.00080324,-0.00711468
 ,0.00577911,0.00068477,0.00203377,-0.00030396,0.00063461,0.00155621,0.
 00089862,-0.00012685,0.00267357,0.00178882,-0.00383661,0.00129796,-0.0
 0122719,-0.00086925,0.00214704,0.00010483,-0.00421592,0.00087618,-0.00
 112888,0.00034955,0.00024577,0.00071585,0.00180685,0.00153495,-0.00415
 446,-0.00072659,0.00268986,-0.00104855,0.00044806,0.00011488,0.0002282
 9,0.00011131,0.00006652,-0.00007394,-0.00025225,0.00017571,0.00013274,
 0.00002118,-0.00003400,0.00000977,0.00003254,0.00000630,-0.00003973,-0
 .00000906,-0.00014071,-0.00007325,-0.00016201,-0.00015977,-0.00009981,
 -0.00036832,-0.00000445,0.00005430,-0.00004771,-0.00010294,0.00003999,
 -0.00006363,0.00003117,-0.00007777,-0.00005167,-0.00017764,-0.00007459
 ,0.00000594,-0.00000877,-0.00000076,0.00001339,-0.00002664,0.00000844,
 0.00002458,-0.00006614,-0.00027340,-0.00013179,-0.00008301,0.00028662,
 -0.00022953,0.00017585,0.00009587,-0.00004155,-0.00000363,0.00001900,-
 0.00033456,0.09529177,-0.00008219,0.00002813,-0.00005219,-0.00001216,0
 .00002345,0.00001881,-0.00000448,0.00001196,-0.00003250,0.00000336,-0.
 00000077,0.00000538,-0.00002877,0.00000999,-0.00003461,0.00001666,-0.0
 0008416,0.00005553,0.00010100,0.00161437,-0.00225850,-0.01083848,-0.00
 366443,0.00333004,0.01906336,0.00455315,-0.00014343,-0.00001408,-0.000
 00308,-0.00000857,-0.00000652,0.00000545,0.00000073,-0.00000299,0.0000
 0306,-0.00000052,0.00001297,-0.00001030,-0.00000716,0.00012928,-0.0000
 2495,-0.00004343,0.00319129,-0.00385964,-0.01550633,-0.00076880,0.0040
 6467,-0.00478064,0.00223157,0.00051527,0.00077884,-0.00469479,-0.00280
 804,0.00430158,-0.00058326,0.00059011,-0.00026814,-0.00025903,0.000252
 63,-0.00173943,0.00019631,-0.00005022,-0.00000656,-0.00008008,-0.00015
 851,-0.00067399,0.00001116,-0.00004705,-0.00001026,-0.00020946,0.00002
 223,0.00015645,0.00021544,-0.00009052,0.00010137,0.00032999,0.00038355
 ,-0.00019770,-0.00076439,0.00012672,-0.00688815,0.00951242,-0.00673263
 ,-0.02048106,0.00217396,-0.00448734,-0.00899982,-0.00258299,0.01143518
 ,0.01216433,-0.00540627,0.02941987,-0.01721045,-0.02173069,-0.02055630
 ,-0.00645428,0.00686553,-0.00192276,-0.00896636,-0.00023232,-0.0023743
 7,-0.00183580,-0.00433989,-0.00599767,-0.01015767,-0.00021264,-0.00478
 795,0.00473918,0.00603611,0.00365640,-0.00488064,0.00507204,0.00290742
 ,0.00304672,0.00325732,-0.00493307,0.00175304,-0.00632917,0.00238543,0
 .00440637,0.00518130,0.00482752,0.00004290,0.00038175,0.00283363,-0.00
 199972,-0.00103437,0.00109772,-0.00075127,-0.00065838,0.00221031,0.000
 84305,0.00063632,-0.00030932,-0.00225144,0.00168069,-0.00318215,-0.001
 34024,0.00275095,-0.00062506,-0.00015977,-0.00175875,-0.00030485,-0.00
 595580,-0.00096708,-0.00033927,-0.00015926,0.00006453,-0.00187866,-0.0
 0004099,0.00036804,-0.00005581,0.00026598,-0.00025174,0.00000532,0.000
 01372,-0.00023490,0.00010558,0.00010639,-0.00000295,-0.00004839,0.0000
 0798,0.00005298,0.00002106,0.00001107,0.00008370,-0.00020689,-0.000173
 87,-0.00019190,-0.00022986,-0.00002761,-0.00039759,-0.00003749,0.00012
 817,-0.00001629,-0.00004212,0.00006548,-0.00007316,0.00001371,-0.00007
 863,-0.00003406,-0.00017050,-0.00004110,0.00000774,0.00000983,-0.00001
 918,-0.00003189,-0.00000446,-0.00003499,0.00002516,-0.00010824,-0.0001
 7335,-0.00005613,0.00002335,0.00015045,-0.00027462,0.00019699,0.000139
 58,0.00002859,-0.00000162,0.00004356,-0.00313241,-0.00300736,0.0896114
 4,-0.03186765,0.01424612,-0.01437854,-0.00242983,0.00169370,0.00683524
 ,-0.00004742,0.00158455,-0.00172941,-0.00024437,0.00035787,0.00074052,
 -0.00060798,0.00102432,-0.00042337,0.00176422,-0.00029171,-0.00321856,
 -0.34617096,-0.14887791,0.00784262,-0.01468987,-0.00580029,-0.02404581
 ,-0.02832932,-0.02421682,0.01633097,-0.00006254,-0.00060091,-0.0000539
 6,-0.00026208,0.00068712,0.00027866,-0.00015573,0.00008168,0.00012729,
 -0.00020930,0.00011135,0.00028759,-0.00104971,0.00023509,0.00016483,-0
 .01534179,0.00028797,-0.01054542,-0.01207642,-0.00650580,0.00925099,0.
 00617184,0.00125473,0.00991850,0.00093540,0.00462152,-0.00842929,0.000
 50617,0.00077900,-0.00272774,0.00112374,-0.00111208,0.00348342,-0.0000
 3616,-0.00006151,0.00055722,0.00013362,-0.00026572,0.00031701,-0.00017
 845,-0.00001402,0.00039611,-0.00004226,0.00020330,-0.00051364,-0.00030
 260,0.00023734,-0.00042791,-0.00010816,-0.00006341,-0.00045578,-0.0015
 2891,0.00129840,-0.00079691,-0.00041029,0.00110970,0.00119721,-0.00164
 198,-0.00098177,0.00035449,0.00216695,0.00124480,-0.00060914,0.0020294
 3,-0.00187674,0.00199564,0.00101200,-0.00296413,-0.00512866,-0.0008505
 9,-0.00067406,0.00031336,-0.00077328,-0.00050223,-0.00002517,-0.001194
 26,0.00101115,-0.00079867,-0.00033085,0.00051593,-0.00072205,-0.001406
 49,0.00349001,0.00333595,0.00074736,0.00096105,0.00149968,0.00008381,-
 0.00176488,0.00040997,0.00085779,-0.00065555,-0.00022600,0.00056973,0.
 00093153,-0.00050221,0.00017851,0.00056961,-0.00021774,-0.00034057,0.0
 0047109,-0.00012470,-0.00011778,0.00093627,0.00045212,-0.00021643,0.00
 013186,0.00003737,-0.00018942,0.00047360,0.00010752,-0.00056878,0.0001
 1903,-0.00009936,-0.00052620,-0.00046377,0.00012652,-0.00034219,-0.000
 18284,0.00046070,0.00004389,-0.00040380,0.00009784,-0.15124864,0.04651
 729,-0.06552404,-0.00781269,0.00205221,-0.00586508,-0.04849529,-0.0036
 7694,-0.02413710,-0.00211954,-0.00840686,0.00076898,0.00155601,0.00256
 114,-0.00170398,-0.00002344,-0.00027664,-0.00022637,0.00025638,-0.0007
 9571,0.00031548,-0.00022828,0.00004184,-0.00013764,0.00003531,-0.00005
 379,-0.00010372,0.00002900,-0.00006493,-0.00002697,-0.00000835,-0.0000
 3299,0.00002385,-0.00121342,0.00158532,-0.00112671,-0.00073422,-0.0006
 1180,0.00058392,-0.00179440,0.00361361,0.00074359,0.00055534,-0.000557
 79,0.00049388,-0.00007973,0.00120301,-0.00101429,-0.00024253,0.0003162
 6,-0.00001457,0.00666994,-0.00150467,-0.00138183,0.65122473,0.03001983
 ,-0.00932591,0.01151994,0.00182744,-0.00067995,-0.00369400,0.00001450,
 -0.00151535,0.00009475,0.00044067,-0.00025437,0.00053555,0.00001872,0.
 00031083,0.00082394,-0.00003690,0.00017687,0.00034933,-0.14637998,-0.1
 0634183,0.04015324,-0.01370493,-0.00118984,-0.01759889,0.00400881,-0.0
 0163132,0.00819853,0.00014061,0.00035934,-0.00019394,-0.00000821,-0.00
 031970,-0.00009865,0.00003786,-0.00000435,-0.00003772,-0.00003752,0.00
 012263,-0.00001504,0.00084858,-0.00106214,-0.00081838,-0.00432411,0.00
 132746,0.00026499,-0.00807136,-0.00106319,0.00632150,0.00523518,0.0007
 3651,0.00351300,0.00455749,0.00244537,-0.00269045,0.00039517,-0.000351
 32,-0.00074741,0.00060734,-0.00045293,0.00053389,0.00003567,-0.0000490
 6,0.00016292,0.00010029,-0.00009552,-0.00005541,-0.00003345,0.00010983
 ,0.00024056,-0.00005953,0.00006169,-0.00020974,-0.00003595,0.00019125,
 -0.00015864,0.00001774,-0.00001842,-0.00010761,-0.00048285,0.00056909,
 -0.00030174,0.00008580,0.00061623,0.00045250,-0.00070516,-0.00036134,0
 .00011352,0.00094058,0.00043034,-0.00024472,0.00060289,-0.00083582,0.0
 0074631,-0.00031046,-0.00120170,-0.00176010,-0.00035333,-0.00020277,0.
 00012628,-0.00033093,-0.00019319,-0.00001483,-0.00040521,0.00045224,-0
 .00034594,-0.00007525,0.00022487,-0.00028036,-0.00149844,0.00192465,0.
 00165480,0.00061700,0.00046249,0.00057480,-0.00021197,-0.00069970,0.00
 035681,0.00026925,-0.00027094,-0.00006769,0.00031277,0.00038689,-0.000
 19372,0.00018326,0.00026477,-0.00016879,-0.00004948,0.00017921,-0.0000
 5313,-0.00001038,0.00036877,0.00012951,-0.00006690,0.00006025,-0.00000
 184,-0.00005684,0.00019466,0.00003897,-0.00017902,0.00004760,-0.000029
 33,-0.00027691,-0.00021114,0.00004832,-0.00016329,-0.00007427,0.000195
 76,-0.00000030,-0.00015173,0.00003477,0.02912996,-0.08033756,0.0380029
 5,0.01156327,-0.00158463,0.00452974,-0.02260458,0.00405524,-0.01417338
 ,-0.00255185,-0.00523815,0.00011421,0.00022136,0.00141080,-0.00020690,
 -0.00080881,0.00008498,0.00029625,0.00068149,-0.00062855,0.00012470,-0
 .00033393,0.00049116,-0.00039488,-0.00002668,0.00003523,-0.00006146,0.
 00006300,-0.00003996,0.00004513,0.00000966,0.00004262,0.00002462,-0.00
 059746,0.00097279,-0.00055622,-0.00077852,-0.00031696,0.00006864,-0.00
 477313,-0.00336627,-0.00467141,-0.00031682,-0.00014046,0.00266132,-0.0
 0088078,0.00016839,-0.00223129,0.00018589,0.00017215,-0.00024606,0.002
 66742,-0.00089519,-0.00020824,0.11570171,0.20164832,0.00375519,-0.0001
 0387,0.00786500,0.00025981,-0.00107979,-0.00017351,0.00015558,-0.00020
 237,0.00027141,0.00018259,-0.00027217,-0.00010596,0.00076017,-0.000008
 93,0.00149358,0.00166479,-0.00045298,-0.00395201,-0.00418275,0.0279296
 7,-0.06952182,0.02549594,0.01283286,0.00308960,-0.02146013,-0.01294714
 ,0.00725710,0.00026397,-0.00025164,0.00012407,-0.00000641,0.00001174,0
 .00000486,0.00003569,-0.00008271,0.00009099,-0.00010335,0.00010240,0.0
 0004874,0.00173338,-0.00194169,0.00009695,-0.00793453,0.00119452,-0.00
 514808,0.00333938,0.00260969,-0.00556405,-0.00018394,-0.00083444,0.005
 11865,-0.00642445,-0.00074848,-0.00588386,0.00001160,0.00012453,0.0003
 0361,-0.00029349,-0.00099385,0.00221733,-0.00005512,-0.00003361,0.0000
 8906,-0.00001296,-0.00001189,0.00010510,0.00002131,-0.00002029,0.00005
 692,0.00010359,0.00005835,-0.00007589,-0.00016502,0.00009303,-0.000268
 74,-0.00015504,0.00002482,-0.00030818,-0.00046996,0.00030365,-0.000049
 23,0.00000446,0.00004519,0.00026352,-0.00018410,-0.00017387,0.00016315
 ,0.00022932,0.00022169,-0.00017275,0.00066033,-0.00042052,0.00033654,-
 0.00007273,-0.00008000,-0.00082002,-0.00013386,-0.00014994,0.00008075,
 -0.00007810,-0.00006797,0.00002599,-0.00035192,0.00020162,-0.00006744,
 -0.00014098,0.00010930,-0.00009892,-0.00063505,0.00051739,0.00086747,0
 .00024617,0.00007808,0.00033697,-0.00003645,-0.00019332,-0.00001728,0.
 00023582,-0.00014621,-0.00012628,-0.00011438,0.00000454,-0.00015528,0.
 00001178,0.00003568,0.00003097,-0.00001206,0.00004827,0.00001267,-0.00
 000404,0.00013560,0.00008910,-0.00007392,0.00002241,0.00006775,-0.0000
 5486,0.00011285,0.00003917,-0.00015097,0.00003023,-0.00001346,0.000118
 62,0.00003825,0.00005366,0.00000205,-0.00001102,0.00006502,0.00002573,
 -0.00002686,0.00003661,-0.05554884,0.04123671,-0.10692495,-0.03553548,
 0.00880581,-0.01154333,-0.01152193,-0.00343574,-0.00350399,-0.00004749
 ,-0.00060341,0.00068869,0.00224859,0.00002540,-0.00136448,-0.00018682,
 0.00003796,0.00024319,0.00044599,-0.00024862,0.00036672,-0.00007279,0.
 00017838,-0.00029127,0.00001703,-0.00000911,-0.00004307,0.00001594,-0.
 00000745,-0.00000277,-0.00000999,-0.00001563,0.00001507,-0.00017573,0.
 00000286,-0.00004768,0.00006413,0.00007722,0.00073200,-0.00302438,-0.0
 0134740,-0.00133120,-0.00048111,0.00007401,0.00122067,-0.00019989,-0.0
 0001803,-0.00094024,-0.00025407,-0.00022099,0.00002780,0.00082681,0.00
 025129,-0.00144273,0.10761330,-0.07041410,0.18596203\\-0.00000584,0.00
 000766,-0.00001257,0.00000608,-0.00000126,-0.00000226,0.00000181,0.000
 00135,-0.00000519,-0.00000079,0.00000352,-0.00001030,-0.00000250,0.000
 00602,-0.00000475,-0.00000253,-0.00000337,-0.00000569,-0.00000821,-0.0
 0000333,-0.00000054,-0.00001312,-0.00002026,0.00001152,0.00001706,-0.0
 0002314,-0.00002185,0.00000124,-0.00000193,-0.00000645,0.00000067,0.00
 000185,-0.00000947,-0.00000135,0.00000519,-0.00001090,-0.00000100,0.00
 000473,-0.00000675,-0.00000119,0.00000716,-0.00000385,0.00001689,0.000
 03804,0.00002540,0.00001932,0.00002283,-0.00001595,0.00000441,-0.00000
 667,0.00000088,-0.00000203,0.00000908,0.00001785,-0.00000044,-0.000006
 51,-0.00001688,-0.00000113,0.00000131,-0.00000896,0.00000126,-0.000004
 68,-0.00000004,-0.00000312,-0.00000074,0.00001515,0.00000652,-0.000003
 44,-0.00000273,-0.00000265,0.00000506,0.00000165,-0.00000644,0.0000082
 7,0.00000201,-0.00000591,0.00000636,0.00000587,0.00000332,-0.00000167,
 0.00001179,-0.00000561,0.00000167,-0.00001368,-0.00001990,0.00000402,0
 .00001577,0.00000921,0.00003168,-0.00000005,0.00001487,0.00001338,-0.0
 0002948,0.00001324,-0.00000716,0.00000426,0.00001382,-0.00003868,0.000
 01206,0.00000348,0.00000080,-0.00000385,-0.00000238,-0.00000725,0.0000
 0430,-0.00001168,0.00001167,0.00001107,-0.00001359,0.00003031,-0.00001
 336,0.00000284,-0.00000280,0.00000259,0.00000263,-0.00000391,0.0000078
 6,0.00000440,0.00001007,0.00001724,-0.00000469,-0.00002077,-0.00000175
 ,0.00000891,-0.00000691,0.00000369,-0.00000007,-0.00000179,0.00000636,
 -0.00000729,-0.00000004,0.00001486,-0.00000185,0.00000061,0.00001170,0
 .00000225,-0.00001090,0.00000372,-0.00001038,0.00000096,0.00000325,-0.
 00000459,0.00001082,-0.00000918,0.00000518,-0.00000253,-0.00000178,0.0
 0000191,0.00000387,-0.00000406,-0.00000937,-0.00001083,-0.00001264,-0.
 00000082,-0.00000354,-0.00000331,0.00002675,0.00002193,0.00001743,-0.0
 0000543,0.00000279,-0.00000329,-0.00001308,-0.00000717,-0.00000171,0.0
 0000922,-0.00000406,0.00000467,-0.00001712,0.00000083,-0.00000331,-0.0
 0000028,-0.00000246,0.00000992,-0.00000675,-0.00000033,0.00000751,0.00
 000555,-0.00000574,0.00000480,0.00000777,-0.00000509,0.00000261,-0.000
 00164,-0.00000142,-0.00000315,-0.00000003,0.00000652,0.00000101,0.0000
 0431,-0.00000857,0.00000847,0.00001004,-0.00000608,-0.00001069,-0.0000
 1036,0.00000850,-0.00000348,0.00000116,0.00000265,0.00000231,-0.000008
 72,-0.00006133,-0.00000325,-0.00001223,0.00000486,-0.00000240\\\@


 LIFE IS SO UNCERTAIN - EAT DESSERT FIRST.
 Job cpu time:       7 days 11 hours 31 minutes 13.3 seconds.
 Elapsed time:       0 days  7 hours 28 minutes 57.3 seconds.
 File lengths (MBytes):  RWF=  13900 Int=      0 D2E=      0 Chk=     92 Scr=      8
 Normal termination of Gaussian 16 at Wed Feb 19 10:25:07 2025.
