 Entering Gaussian System, Link 0=/sysapps/ubuntu-applications/gaussian-new/avx/g16//g16
 Input=irc-yb-maj.in
 Output=irc-yb-maj.log
 Initial command:
 /sysapps/ubuntu-applications/gaussian-new/avx/g16/l1.exe "/data/temp-scratch/selhajj1/7633632/Gau-3963598.inp" -scrdir="/data/temp-scratch/selhajj1/7633632/"
 Entering Link 1 = /sysapps/ubuntu-applications/gaussian-new/avx/g16/l1.exe PID=   3963600.
  
 Copyright (c) 1988,1990,1992,1993,1995,1998,2003,2009,2016,
            Gaussian, Inc.  All Rights Reserved.
  
 This is part of the Gaussian(R) 16 program.  It is based on
 the Gaussian(R) 09 system (copyright 2009, Gaussian, Inc.),
 the Gaussian(R) 03 system (copyright 2003, Gaussian, Inc.),
 the Gaussian(R) 98 system (copyright 1998, Gaussian, Inc.),
 the Gaussian(R) 94 system (copyright 1995, Gaussian, Inc.),
 the Gaussian 92(TM) system (copyright 1992, Gaussian, Inc.),
 the Gaussian 90(TM) system (copyright 1990, Gaussian, Inc.),
 the Gaussian 88(TM) system (copyright 1988, Gaussian, Inc.),
 the Gaussian 86(TM) system (copyright 1986, Carnegie Mellon
 University), and the Gaussian 82(TM) system (copyright 1983,
 Carnegie Mellon University). Gaussian is a federally registered
 trademark of Gaussian, Inc.
  
 This software contains proprietary and confidential information,
 including trade secrets, belonging to Gaussian, Inc.
  
 This software is provided under written license and may be
 used, copied, transmitted, or stored only in accord with that
 written license.
  
 The following legend is applicable only to US Government
 contracts under FAR:
  
                    RESTRICTED RIGHTS LEGEND
  
 Use, reproduction and disclosure by the US Government is
 subject to restrictions as set forth in subparagraphs (a)
 and (c) of the Commercial Computer Software - Restricted
 Rights clause in FAR 52.227-19.
  
 Gaussian, Inc.
 340 Quinnipiac St., Bldg. 40, Wallingford CT 06492
  
  
 ---------------------------------------------------------------
 Warning -- This program may not be used in any manner that
 competes with the business of Gaussian, Inc. or will provide
 assistance to any competitor of Gaussian, Inc.  The licensee
 of this program is prohibited from giving any competitor of
 Gaussian, Inc. access to this program.  By using this program,
 the user acknowledges that Gaussian, Inc. is engaged in the
 business of creating and licensing software in the field of
 computational chemistry and represents and warrants to the
 licensee that it is not a competitor of Gaussian, Inc. and that
 it will not use this program in any manner prohibited above.
 ---------------------------------------------------------------
  

 Cite this work as:
 Gaussian 16, Revision A.03,
 M. J. Frisch, G. W. Trucks, H. B. Schlegel, G. E. Scuseria, 
 M. A. Robb, J. R. Cheeseman, G. Scalmani, V. Barone, 
 G. A. Petersson, H. Nakatsuji, X. Li, M. Caricato, A. V. Marenich, 
 J. Bloino, B. G. Janesko, R. Gomperts, B. Mennucci, H. P. Hratchian, 
 J. V. Ortiz, A. F. Izmaylov, J. L. Sonnenberg, D. Williams-Young, 
 F. Ding, F. Lipparini, F. Egidi, J. Goings, B. Peng, A. Petrone, 
 T. Henderson, D. Ranasinghe, V. G. Zakrzewski, J. Gao, N. Rega, 
 G. Zheng, W. Liang, M. Hada, M. Ehara, K. Toyota, R. Fukuda, 
 J. Hasegawa, M. Ishida, T. Nakajima, Y. Honda, O. Kitao, H. Nakai, 
 T. Vreven, K. Throssell, J. A. Montgomery, Jr., J. E. Peralta, 
 F. Ogliaro, M. J. Bearpark, J. J. Heyd, E. N. Brothers, K. N. Kudin, 
 V. N. Staroverov, T. A. Keith, R. Kobayashi, J. Normand, 
 K. Raghavachari, A. P. Rendell, J. C. Burant, S. S. Iyengar, 
 J. Tomasi, M. Cossi, J. M. Millam, M. Klene, C. Adamo, R. Cammi, 
 J. W. Ochterski, R. L. Martin, K. Morokuma, O. Farkas, 
 J. B. Foresman, and D. J. Fox, Gaussian, Inc., Wallingford CT, 2016.
 
 ******************************************
 Gaussian 16:  ES64L-G16RevA.03 25-Dec-2016
                 4-Mar-2025 
 ******************************************
 %chk=ts-major.chk
 %mem=616Gb
 %nprocshared=24
 Will use up to   24 processors via shared memory.
 ----------------------------------------------------------------------
 # irc=(maxpoints=100,recorrect=never,calcfc,maxcycles=500,nogradstop) 
 UMN15/genecp scrf=(smd,solvent=DiChloroEthane)
 ----------------------------------------------------------------------
 1/6=500,10=4,18=10,26=3,38=1,42=100,44=3,108=-1,131=1,172=1/1,23;
 2/12=2,17=6,18=5,29=1,40=1/2;
 3/5=7,11=2,16=1,17=8,25=1,30=1,70=32201,71=2,72=10,74=-73,116=2,140=1/1,2,3;
 4//1;
 5/5=2,38=5,53=10/2;
 8/6=4,10=90,11=11/1;
 11/6=1,8=1,9=11,15=111,16=1/1,2,10;
 10/6=1,13=1/2;
 6/7=2,8=2,9=2,10=2,28=1/1;
 7/10=1,18=20,25=1/1,2,3,16;
 1/6=500,10=4,18=10,26=3,42=100,44=3,108=-1,131=1/23(2);
 2/29=1/2;
 99/5=20/99;
 2/29=1/2;
 3/5=7,6=1,11=2,16=1,17=8,25=1,30=1,70=32205,71=2,72=10,74=-73,82=7,116=2,140=1/1,2,3;
 4/5=5,16=3,69=1/1;
 5/5=2,38=5,53=10/2;
 8/6=4,10=90,11=11/1;
 11/6=1,8=1,9=11,15=111,16=1/1,2,10;
 10/6=1,13=1/2;
 7/10=1,18=20,25=1/1,2,3,16;
 1/6=500,18=10,26=3,42=100,44=3,108=-1,131=1/23(-8);
 2/29=1/2;
 6/7=2,8=2,9=2,10=2,19=2,28=1/1;
 99/5=20,9=1/99;
 -----------------------------------------------------------
 IRC for Going from i2 to i3, where we are forming bond 7-56
 -----------------------------------------------------------
 Symbolic Z-matrix:
 Charge =  0 Multiplicity = 2
 C                    -5.48228  -0.84449   0.29928 
 C                    -5.81186  -1.15081  -1.02773 
 C                    -6.93507  -1.93434  -1.29337 
 C                    -7.72775  -2.40491  -0.24319 
 C                    -7.39574  -2.09994   1.07922 
 C                    -6.27042  -1.32287   1.35315 
 C                    -2.07137   0.36817  -0.2554 
 C                    -1.23641  -0.11846   0.91542 
 C                    -1.34274   0.4778   -1.58628 
 H                    -5.18726  -0.78707  -1.84723 
 H                    -7.19035  -2.17953  -2.32617 
 H                    -8.60608  -3.01786  -0.45688 
 H                    -8.0093   -2.47438   1.90095 
 H                    -5.99763  -1.08874   2.38562 
 O                    -0.17648   0.83116  -1.59682 
 O                    -0.19663   0.47361   1.15861 
 O                     1.82035   2.50446   0.15187 
 O                     1.7186   -1.90054   1.48872 
 O                    -0.10316  -1.85035  -0.7759 
 S                     0.6211   -2.2871   -1.99185 
 S                     2.26013   2.88146  -1.21578 
 S                     2.61704  -1.29307   2.49984 
 O                     1.9099   -1.56127  -2.11339 
 O                    -0.17057  -2.40455  -3.20227 
 O                     2.67285   1.67583  -1.96626 
 O                     1.41122   3.83875  -1.90496 
 O                     2.93877   0.09966   2.10393 
 O                     2.30481  -1.53049   3.89313 
 C                     4.19956  -2.16616   2.17534 
 C                     3.84447   3.75991  -0.92307 
 C                     1.14832  -4.00491  -1.60174 
 F                     5.16484  -1.68658   2.94285 
 F                     4.53415  -1.98286   0.89887 
 F                     4.06919  -3.46333   2.39994 
 F                     4.38457   4.11769  -2.07679 
 F                     4.68394   2.95892  -0.28152 
 F                     3.63262   4.84118  -0.18891 
 F                     0.10162  -4.71424  -1.20655 
 F                     2.05886  -4.0034   -0.64251 
 F                     1.66497  -4.56489  -2.68533 
 C                    -4.29812   0.02337   0.61186 
 H                    -3.8927   -0.1941    1.61435 
 C                    -4.65098   1.57074   0.65531 
 C                    -5.65591   1.83723   1.69475 
 C                    -5.14708   1.98597  -0.66818 
 C                    -1.19383   2.97661   0.3539 
 C                    -1.98327   2.91926   2.61584 
 C                    -0.97418   3.26095   1.67683 
 H                    -0.45825   3.19289  -0.4223 
 H                    -1.83945   3.06278   3.68864 
 H                    -0.04375   3.72299   2.00862 
 N                    -6.48402   2.00185   2.48384 
 N                    -5.52004   2.25305  -1.72961 
 N                    -3.38936   2.26399   0.97565 
 N                    -3.15388   2.42914   2.2616 
 C                    -2.41641   2.33122  -0.00631 
 H                    -2.80392   2.45179  -1.02442 
 O                    -3.32541  -0.10642  -0.40519 
 Yb                    1.86289   0.00425  -0.19698 
 C                    -2.15277   0.19743  -2.80333 
 H                    -2.51205  -0.84243  -2.76136 
 H                    -3.04118   0.85303  -2.82076 
 H                    -1.53638   0.35255  -3.6953 
 C                    -1.66089  -1.33217   1.67474 
 H                    -2.12504  -1.01565   2.62449 
 H                    -2.35856  -1.96748   1.11517 
 H                    -0.74009  -1.88155   1.91511 
 
 IRC-IRC-IRC-IRC-IRC-IRC-IRC-IRC-IRC-IRC-IRC-IRC-IRC-IRC-IRC-IRC-IRC-IRC
 ------------------------------------------------------------------------
 INPUT DATA FOR L123
 ------------------------------------------------------------------------
 GENERAL PARAMETERS:
 Follow reaction path in both directions.
 Maximum points per path      = 100
 Step size                    =   0.100 bohr
 Integration scheme           = HPC                                 
    Redo corrector integration= Never                               
    DWI Weight Power          =  2
    DWI will use Hessian update vectors when possible.
 Initial Hessian              = CalcFC
 Hessian evaluation           = All updating
 Hessian updating method      = Bofill                              
 ------------------------------------------------------------------------
 IRC-IRC-IRC-IRC-IRC-IRC-IRC-IRC-IRC-IRC-IRC-IRC-IRC-IRC-IRC-IRC-IRC-IRC
 Symmetry turned off by external request.
 Stoichiometry    C22H16F9N4O12S3Yb(2)
 Framework group  C1[X(C22H16F9N4O12S3Yb)]
 Deg. of freedom   195
 Full point group                 C1      NOp   1
                          Input orientation:                          
 ---------------------------------------------------------------------
 Center     Atomic      Atomic             Coordinates (Angstroms)
 Number     Number       Type             X           Y           Z
 ---------------------------------------------------------------------
      1          6           0       -5.482284   -0.844491    0.299275
      2          6           0       -5.811857   -1.150812   -1.027728
      3          6           0       -6.935069   -1.934344   -1.293370
      4          6           0       -7.727750   -2.404912   -0.243185
      5          6           0       -7.395740   -2.099940    1.079223
      6          6           0       -6.270423   -1.322869    1.353151
      7          6           0       -2.071370    0.368172   -0.255402
      8          6           0       -1.236409   -0.118463    0.915421
      9          6           0       -1.342735    0.477799   -1.586275
     10          1           0       -5.187263   -0.787067   -1.847225
     11          1           0       -7.190353   -2.179534   -2.326167
     12          1           0       -8.606079   -3.017863   -0.456878
     13          1           0       -8.009305   -2.474383    1.900950
     14          1           0       -5.997626   -1.088744    2.385617
     15          8           0       -0.176483    0.831161   -1.596817
     16          8           0       -0.196626    0.473606    1.158608
     17          8           0        1.820353    2.504457    0.151865
     18          8           0        1.718601   -1.900543    1.488722
     19          8           0       -0.103156   -1.850350   -0.775900
     20         16           0        0.621100   -2.287098   -1.991849
     21         16           0        2.260134    2.881456   -1.215782
     22         16           0        2.617039   -1.293066    2.499836
     23          8           0        1.909900   -1.561274   -2.113392
     24          8           0       -0.170567   -2.404551   -3.202267
     25          8           0        2.672851    1.675829   -1.966260
     26          8           0        1.411216    3.838747   -1.904957
     27          8           0        2.938771    0.099659    2.103933
     28          8           0        2.304812   -1.530487    3.893125
     29          6           0        4.199556   -2.166164    2.175337
     30          6           0        3.844469    3.759910   -0.923070
     31          6           0        1.148323   -4.004911   -1.601741
     32          9           0        5.164843   -1.686575    2.942853
     33          9           0        4.534145   -1.982861    0.898865
     34          9           0        4.069188   -3.463333    2.399942
     35          9           0        4.384574    4.117691   -2.076793
     36          9           0        4.683941    2.958920   -0.281523
     37          9           0        3.632624    4.841176   -0.188905
     38          9           0        0.101615   -4.714242   -1.206553
     39          9           0        2.058862   -4.003401   -0.642506
     40          9           0        1.664967   -4.564886   -2.685330
     41          6           0       -4.298125    0.023368    0.611856
     42          1           0       -3.892702   -0.194099    1.614353
     43          6           0       -4.650979    1.570736    0.655305
     44          6           0       -5.655908    1.837227    1.694752
     45          6           0       -5.147082    1.985971   -0.668181
     46          6           0       -1.193828    2.976607    0.353898
     47          6           0       -1.983266    2.919257    2.615843
     48          6           0       -0.974181    3.260951    1.676830
     49          1           0       -0.458252    3.192891   -0.422301
     50          1           0       -1.839452    3.062776    3.688644
     51          1           0       -0.043745    3.722988    2.008623
     52          7           0       -6.484023    2.001852    2.483844
     53          7           0       -5.520042    2.253053   -1.729609
     54          7           0       -3.389356    2.263994    0.975650
     55          7           0       -3.153876    2.429136    2.261600
     56          6           0       -2.416407    2.331224   -0.006311
     57          1           0       -2.803919    2.451792   -1.024423
     58          8           0       -3.325407   -0.106419   -0.405194
     59         70           0        1.862886    0.004248   -0.196980
     60          6           0       -2.152769    0.197428   -2.803326
     61          1           0       -2.512047   -0.842431   -2.761360
     62          1           0       -3.041181    0.853034   -2.820764
     63          1           0       -1.536378    0.352547   -3.695304
     64          6           0       -1.660887   -1.332174    1.674739
     65          1           0       -2.125037   -1.015652    2.624493
     66          1           0       -2.358564   -1.967480    1.115172
     67          1           0       -0.740085   -1.881550    1.915108
 ---------------------------------------------------------------------
 Rotational constants (GHZ):           0.0664129           0.0380202           0.0317974
 General basis read from cards:  (5D, 7F)
 ======================================================================================================
                                       Pseudopotential Parameters
 ======================================================================================================
  Center     Atomic      Valence      Angular      Power
  Number     Number     Electrons     Momentum     of R      Exponent        Coefficient   SO-Coeffient
 ======================================================================================================
    1          6
                                   No pseudopotential on this center.
    2          6
                                   No pseudopotential on this center.
    3          6
                                   No pseudopotential on this center.
    4          6
                                   No pseudopotential on this center.
    5          6
                                   No pseudopotential on this center.
    6          6
                                   No pseudopotential on this center.
    7          6
                                   No pseudopotential on this center.
    8          6
                                   No pseudopotential on this center.
    9          6
                                   No pseudopotential on this center.
   10          1
                                   No pseudopotential on this center.
   11          1
                                   No pseudopotential on this center.
   12          1
                                   No pseudopotential on this center.
   13          1
                                   No pseudopotential on this center.
   14          1
                                   No pseudopotential on this center.
   15          8
                                   No pseudopotential on this center.
   16          8
                                   No pseudopotential on this center.
   17          8
                                   No pseudopotential on this center.
   18          8
                                   No pseudopotential on this center.
   19          8
                                   No pseudopotential on this center.
   20         16
                                   No pseudopotential on this center.
   21         16
                                   No pseudopotential on this center.
   22         16
                                   No pseudopotential on this center.
   23          8
                                   No pseudopotential on this center.
   24          8
                                   No pseudopotential on this center.
   25          8
                                   No pseudopotential on this center.
   26          8
                                   No pseudopotential on this center.
   27          8
                                   No pseudopotential on this center.
   28          8
                                   No pseudopotential on this center.
   29          6
                                   No pseudopotential on this center.
   30          6
                                   No pseudopotential on this center.
   31          6
                                   No pseudopotential on this center.
   32          9
                                   No pseudopotential on this center.
   33          9
                                   No pseudopotential on this center.
   34          9
                                   No pseudopotential on this center.
   35          9
                                   No pseudopotential on this center.
   36          9
                                   No pseudopotential on this center.
   37          9
                                   No pseudopotential on this center.
   38          9
                                   No pseudopotential on this center.
   39          9
                                   No pseudopotential on this center.
   40          9
                                   No pseudopotential on this center.
   41          6
                                   No pseudopotential on this center.
   42          1
                                   No pseudopotential on this center.
   43          6
                                   No pseudopotential on this center.
   44          6
                                   No pseudopotential on this center.
   45          6
                                   No pseudopotential on this center.
   46          6
                                   No pseudopotential on this center.
   47          6
                                   No pseudopotential on this center.
   48          6
                                   No pseudopotential on this center.
   49          1
                                   No pseudopotential on this center.
   50          1
                                   No pseudopotential on this center.
   51          1
                                   No pseudopotential on this center.
   52          7
                                   No pseudopotential on this center.
   53          7
                                   No pseudopotential on this center.
   54          7
                                   No pseudopotential on this center.
   55          7
                                   No pseudopotential on this center.
   56          6
                                   No pseudopotential on this center.
   57          1
                                   No pseudopotential on this center.
   58          8
                                   No pseudopotential on this center.
   59         70           42
                                      H and up 
                                                     2        1.0000000        0.00000000    0.00000000
                                      S - H
                                                     2       32.4244840      891.01377700    0.00000000
                                      P - H
                                                     2       18.6562320      264.03695300    0.00000000
                                      D - H
                                                     2       10.4902220       73.92391900    0.00000000
                                      F - H
                                                     2       20.7741830      -39.59217300    0.00000000
                                      G - H
                                                     2       28.4310280      -34.63863800    0.00000000
   60          6
                                   No pseudopotential on this center.
   61          1
                                   No pseudopotential on this center.
   62          1
                                   No pseudopotential on this center.
   63          1
                                   No pseudopotential on this center.
   64          6
                                   No pseudopotential on this center.
   65          1
                                   No pseudopotential on this center.
   66          1
                                   No pseudopotential on this center.
   67          1
                                   No pseudopotential on this center.
 ======================================================================================================
   888 basis functions,  1612 primitive gaussians,   961 cartesian basis functions
   222 alpha electrons      221 beta electrons
       nuclear repulsion energy     10734.4431071720 Hartrees.
 NAtoms=   67 NActive=   67 NUniq=   67 SFac= 1.00D+00 NAtFMM=   60 NAOKFM=T Big=T
 Integral buffers will be    131072 words long.
 Raffenetti 2 integral format.
 Two-electron integral symmetry is turned off.
 Force inversion solution in PCM.
 ------------------------------------------------------------------------------
 Polarizable Continuum Model (PCM)
 =================================
 Model                : PCM.
 Atomic radii         : SMD-Coulomb.
 Polarization charges : Total charges.
 Charge compensation  : None.
 Solution method      : Matrix inversion.
 Cavity type          : VdW (van der Waals Surface) (Alpha=1.000).
 Cavity algorithm     : GePol (No added spheres)
                        Default sphere list used, NSphG=   67.
                        Lebedev-Laikov grids with approx.  5.0 points / Ang**2.
                        Smoothing algorithm: York/Karplus (Gamma=1.0000).
                        Polarization charges: spherical gaussians, with
                                              point-specific exponents (IZeta= 3).
                        Self-potential: point-specific (ISelfS= 7).
                        Self-field    : sphere-specific E.n sum rule (ISelfD= 2).
 1st derivatives      : Analytical E(r).r(x)/FMM algorithm (CHGder, D1EAlg=3).
                        Cavity 1st derivative terms included.
 2nd derivatives      : Analytical E(r).r(xy)/FMM algorithm (CHGder, D2EAlg=3).
                        Cavity 2nd derivative terms included.
 Solvent              : DiChloroEthane, Eps=  10.125000 Eps(inf)=   2.087447
 ------------------------------------------------------------------------------
 ------------------------------------------------------------------------------
 Atomic radii for non-electrostatic terms: SMD-CDS.
 ------------------------------------------------------------------------------
 Nuclear repulsion after PCM non-electrostatic terms =    10734.4481246905 Hartrees.
 One-electron integrals computed using PRISM.
   1 Symmetry operations used in ECPInt.
 ECPInt:  NShTT=   73153 NPrTT=  279412 LenC2=   55992 LenP2D=  130609.
 LDataN:  DoStor=T MaxTD1= 9 Len=  602
 NBasis=   888 RedAO= T EigKep=  2.37D-04  NBF=   888
 NBsUse=   888 1.00D-06 EigRej= -1.00D+00 NBFU=   888
 Defaulting to unpruned grid for atomic number  70.
 ExpMin= 2.50D-02 ExpMax= 9.20D+04 ExpMxC= 1.38D+04 IAcc=3 IRadAn=         5 AccDes= 0.00D+00
 Harris functional with IExCor= 1009 and IRadAn=       5 diagonalized for initial guess.
 HarFok:  IExCor= 1009 AccDes= 0.00D+00 IRadAn=         5 IDoV= 1 UseB2=F ITyADJ=14
 ICtDFT=  3500011 ScaDFX=  1.000000  1.000000  1.000000  1.000000
 Defaulting to unpruned grid for atomic number  70.
 FoFCou: FMM=F IPFlag=           0 FMFlag=      100000 FMFlg1=        2001
         NFxFlg=           0 DoJE=T BraDBF=F KetDBF=T FulRan=T
         wScrn=  0.000000 ICntrl=       500 IOpCl=  0 I1Cent=   200000004 NGrid=           0
         NMat0=    1 NMatS0=      1 NMatT0=    0 NMatD0=    1 NMtDS0=    0 NMtDT0=    0
 Symmetry not used in FoFCou.
 Initial guess <Sx>= 0.0000 <Sy>= 0.0000 <Sz>= 0.5000 <S**2>= 0.7500 S= 0.5000
 Requested convergence on RMS density matrix=1.00D-08 within 128 cycles.
 Requested convergence on MAX density matrix=1.00D-06.
 Requested convergence on             energy=1.00D-06.
 No special actions if energy rises.
 Defaulting to unpruned grid for atomic number  70.
 Defaulting to unpruned grid for atomic number  70.
 Defaulting to unpruned grid for atomic number  70.
 Defaulting to unpruned grid for atomic number  70.
 Defaulting to unpruned grid for atomic number  70.
 Defaulting to unpruned grid for atomic number  70.
 Defaulting to unpruned grid for atomic number  70.
 Defaulting to unpruned grid for atomic number  70.
 Defaulting to unpruned grid for atomic number  70.
 Defaulting to unpruned grid for atomic number  70.
 Defaulting to unpruned grid for atomic number  70.
 Defaulting to unpruned grid for atomic number  70.
 Defaulting to unpruned grid for atomic number  70.
 Defaulting to unpruned grid for atomic number  70.
 Defaulting to unpruned grid for atomic number  70.
 Defaulting to unpruned grid for atomic number  70.
 Defaulting to unpruned grid for atomic number  70.
 Defaulting to unpruned grid for atomic number  70.
 Defaulting to unpruned grid for atomic number  70.
 Defaulting to unpruned grid for atomic number  70.
 Defaulting to unpruned grid for atomic number  70.
 Defaulting to unpruned grid for atomic number  70.
 Defaulting to unpruned grid for atomic number  70.
 Defaulting to unpruned grid for atomic number  70.
 Inv3:  Mode=1 IEnd=    70393008.
 Iteration    1 A*A^-1 deviation from unit magnitude is 4.44D-15 for   4839.
 Iteration    1 A*A^-1 deviation from orthogonality  is 3.35D-15 for   4841   4326.
 Iteration    1 A^-1*A deviation from unit magnitude is 4.33D-15 for   4842.
 Iteration    1 A^-1*A deviation from orthogonality  is 2.01D-15 for   4830   1659.
 EnCoef did     1 forward-backward iterations
 EnCoef did   100 forward-backward iterations
 EnCoef did     1 forward-backward iterations
 EnCoef did     4 forward-backward iterations
 Restarting incremental Fock formation.
 Error on total polarization charges =  0.03355
 SCF Done:  E(UMN15) =  -5218.57352307     A.U. after   25 cycles
            NFock= 25  Conv=0.28D-08     -V/T= 2.0934
 <Sx>= 0.0000 <Sy>= 0.0000 <Sz>= 0.5000 <S**2>= 0.7621 S= 0.5060
 <L.S>=  0.00000000000    
 SMD-CDS (non-electrostatic) energy       (kcal/mol) =       3.15
 (included in total energy above)
 Annihilation of the first spin contaminant:
 S**2 before annihilation     0.7621,   after     0.7501
 DoSCS=F DFT=T ScalE2(SS,OS)=  1.000000  1.000000
 Range of M.O.s used for correlation:     1   888
 NBasis=   888 NAE=   222 NBE=   221 NFC=     0 NFV=     0
 NROrb=    888 NOA=   222 NOB=   221 NVA=   666 NVB=   667

 **** Warning!!: The largest alpha MO coefficient is  0.12750573D+02


 **** Warning!!: The largest beta MO coefficient is  0.12750571D+02


 **** Warning!!: The smallest beta delta epsilon is  0.98305911D-01

   1 Symmetry operations used in ECPInt.
 ECPInt:  NShTT=   73153 NPrTT=  279412 LenC2=   55992 LenP2D=  130609.
 LDataN:  DoStor=T MaxTD1=10 Len=  848
 Symmetrizing basis deriv contribution to polar:
 IMax=3 JMax=2 DiffMx= 0.00D+00
 G2DrvN: will do    68 centers at a time, making    1 passes.
 Calling FoFCou, ICntrl=  3107 FMM=T I1Cent=   0 AccDes= 0.00D+00.
 Defaulting to unpruned grid for atomic number  70.
 Defaulting to unpruned grid for atomic number  70.
 Defaulting to unpruned grid for atomic number  70.
 Defaulting to unpruned grid for atomic number  70.
 Defaulting to unpruned grid for atomic number  70.
 Defaulting to unpruned grid for atomic number  70.
 Defaulting to unpruned grid for atomic number  70.
 Defaulting to unpruned grid for atomic number  70.
 Defaulting to unpruned grid for atomic number  70.
 Defaulting to unpruned grid for atomic number  70.
 Defaulting to unpruned grid for atomic number  70.
 Defaulting to unpruned grid for atomic number  70.
 Defaulting to unpruned grid for atomic number  70.
 Defaulting to unpruned grid for atomic number  70.
 Defaulting to unpruned grid for atomic number  70.
 Defaulting to unpruned grid for atomic number  70.
 Defaulting to unpruned grid for atomic number  70.
 Defaulting to unpruned grid for atomic number  70.
 Defaulting to unpruned grid for atomic number  70.
 Defaulting to unpruned grid for atomic number  70.
 Defaulting to unpruned grid for atomic number  70.
 Defaulting to unpruned grid for atomic number  70.
 Defaulting to unpruned grid for atomic number  70.
 Defaulting to unpruned grid for atomic number  70.
 NEqPCM:  Using equilibrium solvation (IEInf=0, Eps=  10.1250, EpsInf=   2.0874)
 G2PCM: DoFxE=T DoFxN=T DoGrad=T DoDP/DQ/DG/TGxP=FFFF NFrqRd=   0 IEInf=0 SqF1=F DoCFld=F IF1Alg=4.
 End of G2Drv F.D. properties file   721 does not exist.
 End of G2Drv F.D. properties file   722 does not exist.
 End of G2Drv F.D. properties file   788 does not exist.
          IDoAtm=11111111111111111111111111111111111111111111111111
          IDoAtm=11111111111111111
 NEqPCM:  Using equilibrium solvation (IEInf=0, Eps=  10.1250, EpsInf=   2.0874)
          Differentiating once with respect to nuclear coordinates.
 Defaulting to unpruned grid for atomic number  70.
 CalDSu exits because no D1Ps are significant.
 Defaulting to unpruned grid for atomic number  70.
 Defaulting to unpruned grid for atomic number  70.
 Defaulting to unpruned grid for atomic number  70.
 Defaulting to unpruned grid for atomic number  70.
 Defaulting to unpruned grid for atomic number  70.
 Defaulting to unpruned grid for atomic number  70.
 Defaulting to unpruned grid for atomic number  70.
 Defaulting to unpruned grid for atomic number  70.
 Defaulting to unpruned grid for atomic number  70.
 Defaulting to unpruned grid for atomic number  70.
 Defaulting to unpruned grid for atomic number  70.
 Defaulting to unpruned grid for atomic number  70.
 Defaulting to unpruned grid for atomic number  70.
 Defaulting to unpruned grid for atomic number  70.
 Defaulting to unpruned grid for atomic number  70.
 Defaulting to unpruned grid for atomic number  70.
 Defaulting to unpruned grid for atomic number  70.
 Defaulting to unpruned grid for atomic number  70.
 Defaulting to unpruned grid for atomic number  70.
 Defaulting to unpruned grid for atomic number  70.
 Defaulting to unpruned grid for atomic number  70.
 Defaulting to unpruned grid for atomic number  70.
 Defaulting to unpruned grid for atomic number  70.
 Defaulting to unpruned grid for atomic number  70.
          There are   204 degrees of freedom in the 1st order CPHF.  IDoFFX=6 NUNeed=     0.
    200 vectors produced by pass  0 Test12= 2.95D-13 1.00D-09 XBig12= 3.06D-01 1.60D-01.
 AX will form    72 AO Fock derivatives at one time.
    198 vectors produced by pass  1 Test12= 2.95D-13 1.00D-09 XBig12= 8.41D-02 3.57D-02.
    198 vectors produced by pass  2 Test12= 2.95D-13 1.00D-09 XBig12= 2.10D-03 5.75D-03.
    198 vectors produced by pass  3 Test12= 2.95D-13 1.00D-09 XBig12= 3.93D-05 8.46D-04.
    198 vectors produced by pass  4 Test12= 2.95D-13 1.00D-09 XBig12= 6.07D-07 7.66D-05.
    198 vectors produced by pass  5 Test12= 2.95D-13 1.00D-09 XBig12= 7.10D-09 6.48D-06.
    196 vectors produced by pass  6 Test12= 2.95D-13 1.00D-09 XBig12= 7.53D-11 6.58D-07.
    126 vectors produced by pass  7 Test12= 2.95D-13 1.00D-09 XBig12= 5.42D-13 9.02D-08.
     41 vectors produced by pass  8 Test12= 2.95D-13 1.00D-09 XBig12= 6.07D-15 6.00D-09.
      3 vectors produced by pass  9 Test12= 2.95D-13 1.00D-09 XBig12= 2.20D-15 1.99D-09.
      1 vectors produced by pass 10 Test12= 2.95D-13 1.00D-09 XBig12= 2.36D-15 1.49D-09.
 InvSVY:  IOpt=1 It=  1 EMax= 1.11D-15
 Solved reduced A of dimension  1557 with   204 vectors.
 End of Minotr F.D. properties file   721 does not exist.
 End of Minotr F.D. properties file   722 does not exist.
 End of Minotr F.D. properties file   788 does not exist.

 **********************************************************************

            Population analysis using the SCF density.

 **********************************************************************

 Alpha  occ. eigenvalues --  -88.03669 -88.03587 -88.03353 -24.32967 -24.32892
 Alpha  occ. eigenvalues --  -24.32817 -24.32782 -24.32674 -24.32657 -24.32552
 Alpha  occ. eigenvalues --  -24.32496 -24.32487 -18.92777 -18.85947 -18.85797
 Alpha  occ. eigenvalues --  -18.81659 -18.81619 -18.81510 -18.81505 -18.81317
 Alpha  occ. eigenvalues --  -18.81210 -18.81138 -18.80779 -18.80737 -16.28901
 Alpha  occ. eigenvalues --  -14.28624 -14.21499 -14.16260 -14.15616 -10.92283
 Alpha  occ. eigenvalues --  -10.92245 -10.92220 -10.31644 -10.31400 -10.31355
 Alpha  occ. eigenvalues --  -10.23972 -10.20125 -10.19893 -10.19619 -10.19358
 Alpha  occ. eigenvalues --  -10.19104 -10.15458 -10.15279 -10.14876 -10.13253
 Alpha  occ. eigenvalues --  -10.12313 -10.08990 -10.07547 -10.07487 -10.06893
 Alpha  occ. eigenvalues --  -10.06855 -10.06808 -10.06728 -10.06709  -7.93441
 Alpha  occ. eigenvalues --   -7.93328  -7.93115  -6.12939  -6.12911  -6.12857
 Alpha  occ. eigenvalues --   -6.12836  -6.12800  -6.12739  -6.12605  -6.12584
 Alpha  occ. eigenvalues --   -6.12541  -5.00569  -5.00546  -5.00512  -5.00508
 Alpha  occ. eigenvalues --   -5.00464  -1.96079  -1.36446  -1.36266  -1.36162
 Alpha  occ. eigenvalues --   -1.26450  -1.26433  -1.26306  -1.26284  -1.26161
 Alpha  occ. eigenvalues --   -1.26099  -1.19948  -1.17820  -1.17594  -1.17494
 Alpha  occ. eigenvalues --   -1.17139  -1.13151  -1.11567  -1.04965  -1.04760
 Alpha  occ. eigenvalues --   -1.04080  -1.03491  -1.03134  -1.02884  -1.01372
 Alpha  occ. eigenvalues --   -1.01031  -1.00330  -1.00069  -0.98473  -0.97342
 Alpha  occ. eigenvalues --   -0.94156  -0.92063  -0.89334  -0.85760  -0.82116
 Alpha  occ. eigenvalues --   -0.81472  -0.79552  -0.78938  -0.78439  -0.78227
 Alpha  occ. eigenvalues --   -0.78129  -0.77898  -0.75999  -0.74165  -0.70600
 Alpha  occ. eigenvalues --   -0.70376  -0.70304  -0.69054  -0.68369  -0.67015
 Alpha  occ. eigenvalues --   -0.66450  -0.66431  -0.66340  -0.66261  -0.66170
 Alpha  occ. eigenvalues --   -0.66108  -0.66064  -0.65266  -0.63927  -0.62189
 Alpha  occ. eigenvalues --   -0.60203  -0.60076  -0.59681  -0.59151  -0.58860
 Alpha  occ. eigenvalues --   -0.58412  -0.57996  -0.56821  -0.56387  -0.54869
 Alpha  occ. eigenvalues --   -0.54727  -0.54565  -0.54534  -0.54478  -0.54430
 Alpha  occ. eigenvalues --   -0.54224  -0.53925  -0.53148  -0.52768  -0.52592
 Alpha  occ. eigenvalues --   -0.52439  -0.52363  -0.52098  -0.51966  -0.51792
 Alpha  occ. eigenvalues --   -0.51768  -0.51469  -0.51325  -0.50804  -0.50537
 Alpha  occ. eigenvalues --   -0.50506  -0.50246  -0.50170  -0.50138  -0.50102
 Alpha  occ. eigenvalues --   -0.50026  -0.49902  -0.49657  -0.49487  -0.48023
 Alpha  occ. eigenvalues --   -0.47950  -0.47760  -0.47688  -0.47537  -0.47242
 Alpha  occ. eigenvalues --   -0.46565  -0.46052  -0.45679  -0.44962  -0.44555
 Alpha  occ. eigenvalues --   -0.44407  -0.43918  -0.43742  -0.43099  -0.43001
 Alpha  occ. eigenvalues --   -0.42843  -0.42471  -0.42360  -0.41706  -0.41459
 Alpha  occ. eigenvalues --   -0.41226  -0.40601  -0.40227  -0.40141  -0.39907
 Alpha  occ. eigenvalues --   -0.39380  -0.39207  -0.38817  -0.37849  -0.37437
 Alpha  occ. eigenvalues --   -0.37269  -0.37205  -0.36953  -0.36879  -0.36585
 Alpha  occ. eigenvalues --   -0.35401  -0.35090  -0.35000  -0.33490  -0.33303
 Alpha  occ. eigenvalues --   -0.33074  -0.32985  -0.30774  -0.30486  -0.28573
 Alpha  occ. eigenvalues --   -0.27216  -0.27175  -0.27147  -0.27084  -0.27047
 Alpha  occ. eigenvalues --   -0.27007  -0.26864
 Alpha virt. eigenvalues --   -0.09773  -0.06111  -0.03843  -0.03542  -0.01567
 Alpha virt. eigenvalues --   -0.00183  -0.00069   0.01133   0.03407   0.04641
 Alpha virt. eigenvalues --    0.06283   0.07413   0.07978   0.08600   0.09169
 Alpha virt. eigenvalues --    0.10081   0.10188   0.10719   0.10972   0.11193
 Alpha virt. eigenvalues --    0.11618   0.12069   0.12168   0.12337   0.12615
 Alpha virt. eigenvalues --    0.12745   0.12908   0.13091   0.13289   0.13922
 Alpha virt. eigenvalues --    0.14260   0.14642   0.15152   0.15427   0.15651
 Alpha virt. eigenvalues --    0.15890   0.16446   0.16612   0.16935   0.17492
 Alpha virt. eigenvalues --    0.17959   0.18096   0.18303   0.18812   0.19043
 Alpha virt. eigenvalues --    0.19528   0.19942   0.20065   0.20155   0.20884
 Alpha virt. eigenvalues --    0.21532   0.21805   0.22123   0.22248   0.22356
 Alpha virt. eigenvalues --    0.23170   0.23563   0.24245   0.24903   0.25173
 Alpha virt. eigenvalues --    0.25645   0.25891   0.26644   0.26706   0.26948
 Alpha virt. eigenvalues --    0.27292   0.27589   0.27817   0.28434   0.28642
 Alpha virt. eigenvalues --    0.28778   0.28860   0.29209   0.29661   0.30450
 Alpha virt. eigenvalues --    0.30677   0.31373   0.31835   0.32047   0.32556
 Alpha virt. eigenvalues --    0.33346   0.33661   0.34886   0.36517   0.37592
 Alpha virt. eigenvalues --    0.38215   0.38452   0.38872   0.39533   0.39832
 Alpha virt. eigenvalues --    0.41402   0.42010   0.42121   0.42659   0.43248
 Alpha virt. eigenvalues --    0.43465   0.43870   0.44265   0.44535   0.45359
 Alpha virt. eigenvalues --    0.46050   0.46293   0.46451   0.46718   0.47099
 Alpha virt. eigenvalues --    0.47685   0.48015   0.48362   0.48811   0.49068
 Alpha virt. eigenvalues --    0.49427   0.49574   0.49981   0.50250   0.50372
 Alpha virt. eigenvalues --    0.51002   0.51147   0.51370   0.52242   0.52379
 Alpha virt. eigenvalues --    0.52932   0.53787   0.54104   0.54437   0.54978
 Alpha virt. eigenvalues --    0.55230   0.56177   0.56701   0.57445   0.57546
 Alpha virt. eigenvalues --    0.57866   0.57943   0.58395   0.58984   0.59425
 Alpha virt. eigenvalues --    0.59718   0.59910   0.60388   0.60425   0.60849
 Alpha virt. eigenvalues --    0.61457   0.61878   0.62369   0.63237   0.63959
 Alpha virt. eigenvalues --    0.64374   0.64392   0.65008   0.65578   0.65811
 Alpha virt. eigenvalues --    0.65926   0.66538   0.66936   0.67280   0.67680
 Alpha virt. eigenvalues --    0.67827   0.68367   0.68638   0.68721   0.69159
 Alpha virt. eigenvalues --    0.69353   0.69633   0.70078   0.70268   0.70638
 Alpha virt. eigenvalues --    0.70909   0.71160   0.71439   0.72161   0.72351
 Alpha virt. eigenvalues --    0.72598   0.73046   0.73171   0.73445   0.73501
 Alpha virt. eigenvalues --    0.74023   0.74489   0.74727   0.75306   0.75963
 Alpha virt. eigenvalues --    0.76245   0.76564   0.77236   0.77398   0.78054
 Alpha virt. eigenvalues --    0.78339   0.78966   0.79239   0.79443   0.80085
 Alpha virt. eigenvalues --    0.80593   0.81442   0.81879   0.82490   0.82877
 Alpha virt. eigenvalues --    0.84220   0.84646   0.84905   0.85735   0.86629
 Alpha virt. eigenvalues --    0.87081   0.87838   0.88310   0.88683   0.89106
 Alpha virt. eigenvalues --    0.89668   0.90032   0.90654   0.91592   0.91874
 Alpha virt. eigenvalues --    0.92645   0.92971   0.93271   0.94248   0.94508
 Alpha virt. eigenvalues --    0.94872   0.95333   0.96178   0.96805   0.97844
 Alpha virt. eigenvalues --    0.98141   0.98539   0.99621   0.99912   1.00349
 Alpha virt. eigenvalues --    1.00935   1.01219   1.01498   1.01745   1.02952
 Alpha virt. eigenvalues --    1.03285   1.04814   1.04918   1.05739   1.06246
 Alpha virt. eigenvalues --    1.06622   1.07225   1.07610   1.07997   1.08609
 Alpha virt. eigenvalues --    1.09322   1.09523   1.09719   1.10229   1.10638
 Alpha virt. eigenvalues --    1.11712   1.11817   1.12091   1.12600   1.13034
 Alpha virt. eigenvalues --    1.14247   1.14372   1.14811   1.14947   1.15517
 Alpha virt. eigenvalues --    1.15795   1.15920   1.16854   1.17577   1.17720
 Alpha virt. eigenvalues --    1.18140   1.18987   1.19045   1.19364   1.19847
 Alpha virt. eigenvalues --    1.20040   1.20169   1.20744   1.21130   1.21617
 Alpha virt. eigenvalues --    1.21956   1.22573   1.23719   1.23835   1.24454
 Alpha virt. eigenvalues --    1.24583   1.25278   1.25897   1.26209   1.26405
 Alpha virt. eigenvalues --    1.27211   1.27738   1.28212   1.29173   1.29650
 Alpha virt. eigenvalues --    1.29832   1.30910   1.31047   1.31055   1.31420
 Alpha virt. eigenvalues --    1.31838   1.32236   1.33313   1.33516   1.33701
 Alpha virt. eigenvalues --    1.33902   1.34453   1.35065   1.35384   1.36088
 Alpha virt. eigenvalues --    1.36279   1.36942   1.37428   1.38035   1.38739
 Alpha virt. eigenvalues --    1.39067   1.40480   1.40938   1.41511   1.42097
 Alpha virt. eigenvalues --    1.42503   1.42680   1.42963   1.43487   1.44358
 Alpha virt. eigenvalues --    1.44988   1.45221   1.45812   1.46046   1.46593
 Alpha virt. eigenvalues --    1.47395   1.48711   1.49112   1.50377   1.50935
 Alpha virt. eigenvalues --    1.51241   1.51701   1.52326   1.52782   1.54141
 Alpha virt. eigenvalues --    1.54539   1.55632   1.55963   1.56868   1.56975
 Alpha virt. eigenvalues --    1.57937   1.58137   1.58263   1.58916   1.59237
 Alpha virt. eigenvalues --    1.59374   1.60011   1.60300   1.61239   1.61472
 Alpha virt. eigenvalues --    1.62140   1.62916   1.63233   1.64617   1.65426
 Alpha virt. eigenvalues --    1.66116   1.66663   1.67020   1.67546   1.68052
 Alpha virt. eigenvalues --    1.68359   1.68731   1.69257   1.69451   1.69760
 Alpha virt. eigenvalues --    1.70586   1.71690   1.71940   1.72161   1.72890
 Alpha virt. eigenvalues --    1.73135   1.73454   1.73616   1.74104   1.74815
 Alpha virt. eigenvalues --    1.74916   1.75209   1.76328   1.76911   1.77294
 Alpha virt. eigenvalues --    1.78767   1.79787   1.80725   1.80949   1.81917
 Alpha virt. eigenvalues --    1.82823   1.82993   1.83847   1.84635   1.85854
 Alpha virt. eigenvalues --    1.86007   1.86685   1.86902   1.87917   1.88165
 Alpha virt. eigenvalues --    1.89177   1.89542   1.89659   1.89739   1.89878
 Alpha virt. eigenvalues --    1.90245   1.90699   1.90873   1.91408   1.91588
 Alpha virt. eigenvalues --    1.91834   1.92336   1.92948   1.93283   1.93400
 Alpha virt. eigenvalues --    1.94091   1.94546   1.95429   1.95508   1.96291
 Alpha virt. eigenvalues --    1.96924   1.97073   1.98034   1.98105   1.98470
 Alpha virt. eigenvalues --    1.98750   1.99438   2.00121   2.00593   2.00861
 Alpha virt. eigenvalues --    2.01164   2.01765   2.02174   2.02727   2.03193
 Alpha virt. eigenvalues --    2.03764   2.03972   2.04169   2.05360   2.05796
 Alpha virt. eigenvalues --    2.07129   2.07672   2.08190   2.08385   2.08702
 Alpha virt. eigenvalues --    2.09397   2.10096   2.10724   2.10911   2.11513
 Alpha virt. eigenvalues --    2.11598   2.12399   2.13206   2.13828   2.14180
 Alpha virt. eigenvalues --    2.14656   2.15619   2.16278   2.16674   2.17237
 Alpha virt. eigenvalues --    2.18156   2.18464   2.19483   2.20537   2.21490
 Alpha virt. eigenvalues --    2.22123   2.22754   2.23133   2.23479   2.24046
 Alpha virt. eigenvalues --    2.24480   2.25077   2.25925   2.26566   2.27398
 Alpha virt. eigenvalues --    2.28885   2.29629   2.29962   2.30371   2.32387
 Alpha virt. eigenvalues --    2.32734   2.32937   2.34212   2.35107   2.36126
 Alpha virt. eigenvalues --    2.36799   2.39623   2.40516   2.41018   2.41979
 Alpha virt. eigenvalues --    2.43509   2.45411   2.48628   2.49023   2.49828
 Alpha virt. eigenvalues --    2.52145   2.54899   2.55712   2.56147   2.56713
 Alpha virt. eigenvalues --    2.56978   2.57449   2.58337   2.59570   2.60704
 Alpha virt. eigenvalues --    2.61404   2.61704   2.62435   2.62556   2.62715
 Alpha virt. eigenvalues --    2.62921   2.63323   2.63798   2.64454   2.65020
 Alpha virt. eigenvalues --    2.65196   2.65642   2.66329   2.67123   2.67573
 Alpha virt. eigenvalues --    2.67853   2.68376   2.69273   2.69494   2.69646
 Alpha virt. eigenvalues --    2.70150   2.70329   2.71241   2.71952   2.72576
 Alpha virt. eigenvalues --    2.73148   2.73441   2.73894   2.74755   2.74951
 Alpha virt. eigenvalues --    2.75473   2.75898   2.76049   2.76486   2.77076
 Alpha virt. eigenvalues --    2.77891   2.78662   2.79014   2.79287   2.80171
 Alpha virt. eigenvalues --    2.81139   2.81419   2.82193   2.82439   2.82971
 Alpha virt. eigenvalues --    2.83125   2.84392   2.86644   2.87254   2.87777
 Alpha virt. eigenvalues --    2.88864   2.89735   2.90746   2.92027   2.94168
 Alpha virt. eigenvalues --    2.94788   2.95636   2.95865   2.96730   2.97767
 Alpha virt. eigenvalues --    2.97785   2.97942   2.98256   2.98771   2.99321
 Alpha virt. eigenvalues --    2.99440   2.99644   2.99732   3.00180   3.01019
 Alpha virt. eigenvalues --    3.01606   3.02574   3.03694   3.03757   3.03903
 Alpha virt. eigenvalues --    3.04045   3.04074   3.04138   3.04260   3.04272
 Alpha virt. eigenvalues --    3.04554   3.04596   3.04728   3.04769   3.04993
 Alpha virt. eigenvalues --    3.05183   3.05247   3.05514   3.05973   3.06006
 Alpha virt. eigenvalues --    3.07036   3.07545   3.07726   3.08333   3.09952
 Alpha virt. eigenvalues --    3.11390   3.12907   3.15644   3.15874   3.15994
 Alpha virt. eigenvalues --    3.16038   3.16161   3.16289   3.16989   3.20909
 Alpha virt. eigenvalues --    3.22122   3.24539   3.25013   3.25848   3.27110
 Alpha virt. eigenvalues --    3.27643   3.31085   3.32518   3.33300   3.37175
 Alpha virt. eigenvalues --    3.38243   3.39128   3.39264   3.39564   3.39961
 Alpha virt. eigenvalues --    3.40717   3.40908   3.41297   3.41688   3.42203
 Alpha virt. eigenvalues --    3.50133   3.51035   3.51606   3.51967   3.52280
 Alpha virt. eigenvalues --    3.52676   3.52907   3.53200   3.53977   3.55266
 Alpha virt. eigenvalues --    3.61847   3.64040   3.64478   3.65519   3.66931
 Alpha virt. eigenvalues --    3.67061   3.67682   3.82279   3.82438   3.82738
 Alpha virt. eigenvalues --    3.83165   3.83392   3.83843   6.48475   6.50198
 Alpha virt. eigenvalues --    6.52040   6.53864   6.58022   7.91624   7.92869
 Alpha virt. eigenvalues --    7.93296   7.97771   7.99836   8.01154   8.05833
 Alpha virt. eigenvalues --    9.70789  13.96738  13.99550  14.01401  24.89597
 Alpha virt. eigenvalues --   84.99798  92.03055  92.11024  92.15737 314.05706
 Alpha virt. eigenvalues --  713.81127
  Beta  occ. eigenvalues --  -88.03669 -88.03586 -88.03353 -24.32967 -24.32892
  Beta  occ. eigenvalues --  -24.32817 -24.32782 -24.32674 -24.32657 -24.32552
  Beta  occ. eigenvalues --  -24.32496 -24.32487 -18.92541 -18.85852 -18.85686
  Beta  occ. eigenvalues --  -18.81657 -18.81617 -18.81510 -18.81498 -18.81317
  Beta  occ. eigenvalues --  -18.81210 -18.81138 -18.80779 -18.80737 -16.28898
  Beta  occ. eigenvalues --  -14.28264 -14.21454 -14.16260 -14.15614 -10.92278
  Beta  occ. eigenvalues --  -10.92244 -10.92215 -10.31644 -10.31400 -10.31355
  Beta  occ. eigenvalues --  -10.23960 -10.19908 -10.19804 -10.19656 -10.19338
  Beta  occ. eigenvalues --  -10.19170 -10.15405 -10.15275 -10.14869 -10.13171
  Beta  occ. eigenvalues --  -10.12307 -10.08988 -10.07545 -10.07487 -10.06884
  Beta  occ. eigenvalues --  -10.06854 -10.06806 -10.06729 -10.06709  -7.93441
  Beta  occ. eigenvalues --   -7.93328  -7.93115  -6.12939  -6.12911  -6.12857
  Beta  occ. eigenvalues --   -6.12836  -6.12800  -6.12739  -6.12605  -6.12584
  Beta  occ. eigenvalues --   -6.12541  -5.00552  -5.00540  -5.00513  -5.00499
  Beta  occ. eigenvalues --   -5.00464  -1.96074  -1.36446  -1.36266  -1.36162
  Beta  occ. eigenvalues --   -1.26450  -1.26433  -1.26306  -1.26284  -1.26161
  Beta  occ. eigenvalues --   -1.26099  -1.19332  -1.17819  -1.17584  -1.17494
  Beta  occ. eigenvalues --   -1.16449  -1.12892  -1.11324  -1.04964  -1.04758
  Beta  occ. eigenvalues --   -1.04080  -1.03482  -1.03129  -1.02881  -1.01194
  Beta  occ. eigenvalues --   -1.01005  -1.00328  -1.00066  -0.98461  -0.97016
  Beta  occ. eigenvalues --   -0.93860  -0.91889  -0.89054  -0.85214  -0.81886
  Beta  occ. eigenvalues --   -0.81360  -0.79542  -0.78537  -0.78337  -0.78208
  Beta  occ. eigenvalues --   -0.78121  -0.77665  -0.75767  -0.73776  -0.70598
  Beta  occ. eigenvalues --   -0.70375  -0.70299  -0.68721  -0.68057  -0.66627
  Beta  occ. eigenvalues --   -0.66450  -0.66431  -0.66339  -0.66260  -0.66167
  Beta  occ. eigenvalues --   -0.66107  -0.65771  -0.64851  -0.63689  -0.61705
  Beta  occ. eigenvalues --   -0.60117  -0.59802  -0.59615  -0.59143  -0.58713
  Beta  occ. eigenvalues --   -0.58160  -0.57695  -0.56452  -0.56063  -0.54774
  Beta  occ. eigenvalues --   -0.54697  -0.54538  -0.54521  -0.54432  -0.54243
  Beta  occ. eigenvalues --   -0.54145  -0.53181  -0.53016  -0.52752  -0.52510
  Beta  occ. eigenvalues --   -0.52342  -0.52203  -0.52031  -0.51884  -0.51779
  Beta  occ. eigenvalues --   -0.51739  -0.51348  -0.51157  -0.50717  -0.50426
  Beta  occ. eigenvalues --   -0.50404  -0.50222  -0.50122  -0.50113  -0.50071
  Beta  occ. eigenvalues --   -0.50022  -0.49825  -0.49603  -0.49294  -0.48022
  Beta  occ. eigenvalues --   -0.47950  -0.47688  -0.47552  -0.47345  -0.47199
  Beta  occ. eigenvalues --   -0.46521  -0.45991  -0.45313  -0.44805  -0.44400
  Beta  occ. eigenvalues --   -0.44175  -0.43861  -0.43513  -0.42894  -0.42784
  Beta  occ. eigenvalues --   -0.42662  -0.42394  -0.42043  -0.41540  -0.41160
  Beta  occ. eigenvalues --   -0.40669  -0.40204  -0.40081  -0.39922  -0.39835
  Beta  occ. eigenvalues --   -0.39193  -0.39071  -0.38091  -0.37515  -0.37366
  Beta  occ. eigenvalues --   -0.37257  -0.37184  -0.36904  -0.36722  -0.36365
  Beta  occ. eigenvalues --   -0.35379  -0.35064  -0.34976  -0.33478  -0.33293
  Beta  occ. eigenvalues --   -0.33001  -0.32586  -0.30660  -0.30465  -0.27210
  Beta  occ. eigenvalues --   -0.27161  -0.27124  -0.27080  -0.27035  -0.26989
  Beta  occ. eigenvalues --   -0.26864
  Beta virt. eigenvalues --   -0.17034  -0.08435  -0.05301  -0.03502  -0.03202
  Beta virt. eigenvalues --   -0.01433  -0.00118  -0.00043   0.01999   0.04044
  Beta virt. eigenvalues --    0.04822   0.06306   0.07509   0.08142   0.08697
  Beta virt. eigenvalues --    0.09493   0.10098   0.10422   0.10831   0.11014
  Beta virt. eigenvalues --    0.11219   0.11629   0.12073   0.12203   0.12356
  Beta virt. eigenvalues --    0.12639   0.12869   0.12934   0.13128   0.13329
  Beta virt. eigenvalues --    0.13921   0.14300   0.14729   0.15197   0.15455
  Beta virt. eigenvalues --    0.15664   0.15915   0.16453   0.16615   0.16953
  Beta virt. eigenvalues --    0.17499   0.17989   0.18156   0.18346   0.18891
  Beta virt. eigenvalues --    0.19074   0.19567   0.19995   0.20085   0.20214
  Beta virt. eigenvalues --    0.21026   0.21565   0.21804   0.22126   0.22275
  Beta virt. eigenvalues --    0.22491   0.23242   0.23602   0.24307   0.24982
  Beta virt. eigenvalues --    0.25188   0.25681   0.25921   0.26701   0.26763
  Beta virt. eigenvalues --    0.26970   0.27346   0.27597   0.27847   0.28486
  Beta virt. eigenvalues --    0.28673   0.28816   0.28868   0.29244   0.29685
  Beta virt. eigenvalues --    0.30469   0.30712   0.31467   0.31849   0.32102
  Beta virt. eigenvalues --    0.32530   0.33397   0.33666   0.34888   0.36524
  Beta virt. eigenvalues --    0.37649   0.38324   0.38468   0.39029   0.39628
  Beta virt. eigenvalues --    0.39903   0.41442   0.42022   0.42142   0.42687
  Beta virt. eigenvalues --    0.43298   0.43488   0.43945   0.44291   0.44579
  Beta virt. eigenvalues --    0.45560   0.46114   0.46399   0.46501   0.46770
  Beta virt. eigenvalues --    0.47096   0.47801   0.48258   0.48428   0.48943
  Beta virt. eigenvalues --    0.49074   0.49459   0.49581   0.50043   0.50261
  Beta virt. eigenvalues --    0.50407   0.51085   0.51191   0.51403   0.52275
  Beta virt. eigenvalues --    0.52434   0.53055   0.53806   0.54277   0.54608
  Beta virt. eigenvalues --    0.55053   0.55235   0.56171   0.56839   0.57496
  Beta virt. eigenvalues --    0.57573   0.57990   0.58080   0.58428   0.59006
  Beta virt. eigenvalues --    0.59517   0.59806   0.60120   0.60469   0.60520
  Beta virt. eigenvalues --    0.60897   0.61510   0.61887   0.62371   0.63300
  Beta virt. eigenvalues --    0.63958   0.64387   0.64426   0.64986   0.65574
  Beta virt. eigenvalues --    0.65799   0.65922   0.66552   0.66926   0.67301
  Beta virt. eigenvalues --    0.67721   0.67843   0.68366   0.68619   0.68756
  Beta virt. eigenvalues --    0.69127   0.69335   0.69625   0.70103   0.70280
  Beta virt. eigenvalues --    0.70628   0.70887   0.71152   0.71447   0.72168
  Beta virt. eigenvalues --    0.72368   0.72596   0.73068   0.73184   0.73427
  Beta virt. eigenvalues --    0.73500   0.74047   0.74512   0.74735   0.75324
  Beta virt. eigenvalues --    0.75974   0.76297   0.76641   0.77290   0.77415
  Beta virt. eigenvalues --    0.78062   0.78338   0.79005   0.79253   0.79464
  Beta virt. eigenvalues --    0.80101   0.80622   0.81515   0.81845   0.82514
  Beta virt. eigenvalues --    0.82899   0.84165   0.84662   0.84916   0.85807
  Beta virt. eigenvalues --    0.86708   0.87174   0.87898   0.88337   0.88768
  Beta virt. eigenvalues --    0.89128   0.89707   0.90073   0.90736   0.91646
  Beta virt. eigenvalues --    0.92026   0.92805   0.93120   0.93406   0.94273
  Beta virt. eigenvalues --    0.94543   0.94975   0.95379   0.96423   0.96903
  Beta virt. eigenvalues --    0.97979   0.98179   0.98585   0.99644   1.00009
  Beta virt. eigenvalues --    1.00392   1.00974   1.01322   1.01588   1.01808
  Beta virt. eigenvalues --    1.03169   1.03399   1.04908   1.04952   1.05823
  Beta virt. eigenvalues --    1.06260   1.06663   1.07276   1.07652   1.08178
  Beta virt. eigenvalues --    1.08725   1.09378   1.09621   1.09750   1.10259
  Beta virt. eigenvalues --    1.10655   1.11774   1.11879   1.12163   1.12609
  Beta virt. eigenvalues --    1.13060   1.14289   1.14371   1.14843   1.14986
  Beta virt. eigenvalues --    1.15542   1.15819   1.15960   1.16873   1.17597
  Beta virt. eigenvalues --    1.17747   1.18162   1.19006   1.19120   1.19398
  Beta virt. eigenvalues --    1.19897   1.20085   1.20228   1.20781   1.21143
  Beta virt. eigenvalues --    1.21677   1.22004   1.22635   1.23784   1.23842
  Beta virt. eigenvalues --    1.24482   1.24607   1.25349   1.26022   1.26277
  Beta virt. eigenvalues --    1.26599   1.27257   1.27779   1.28267   1.29226
  Beta virt. eigenvalues --    1.29665   1.29891   1.30937   1.31064   1.31071
  Beta virt. eigenvalues --    1.31462   1.31853   1.32288   1.33343   1.33535
  Beta virt. eigenvalues --    1.33717   1.34064   1.34480   1.35095   1.35391
  Beta virt. eigenvalues --    1.36179   1.36326   1.37011   1.37470   1.38122
  Beta virt. eigenvalues --    1.38796   1.39163   1.40536   1.41003   1.41572
  Beta virt. eigenvalues --    1.42107   1.42519   1.42687   1.43017   1.43499
  Beta virt. eigenvalues --    1.44362   1.45011   1.45255   1.45819   1.46196
  Beta virt. eigenvalues --    1.46718   1.47451   1.48824   1.49238   1.50413
  Beta virt. eigenvalues --    1.50952   1.51279   1.51732   1.52356   1.52804
  Beta virt. eigenvalues --    1.54201   1.54558   1.55756   1.56001   1.56910
  Beta virt. eigenvalues --    1.57023   1.57953   1.58164   1.58304   1.58929
  Beta virt. eigenvalues --    1.59281   1.59430   1.60061   1.60328   1.61248
  Beta virt. eigenvalues --    1.61492   1.62241   1.62999   1.63277   1.64714
  Beta virt. eigenvalues --    1.65490   1.66148   1.66655   1.67016   1.67525
  Beta virt. eigenvalues --    1.68055   1.68359   1.68757   1.69217   1.69418
  Beta virt. eigenvalues --    1.69791   1.70560   1.71681   1.71971   1.72218
  Beta virt. eigenvalues --    1.72949   1.73125   1.73479   1.73657   1.74101
  Beta virt. eigenvalues --    1.74796   1.74918   1.75185   1.76346   1.76872
  Beta virt. eigenvalues --    1.77322   1.78860   1.79794   1.80745   1.81120
  Beta virt. eigenvalues --    1.81964   1.82852   1.83009   1.83973   1.84691
  Beta virt. eigenvalues --    1.85868   1.86095   1.86737   1.86973   1.87995
  Beta virt. eigenvalues --    1.88205   1.89178   1.89550   1.89670   1.89745
  Beta virt. eigenvalues --    1.89892   1.90256   1.90725   1.90908   1.91528
  Beta virt. eigenvalues --    1.91671   1.91827   1.92384   1.93023   1.93289
  Beta virt. eigenvalues --    1.93554   1.94072   1.94619   1.95480   1.95531
  Beta virt. eigenvalues --    1.96365   1.96915   1.97088   1.98044   1.98155
  Beta virt. eigenvalues --    1.98566   1.98772   1.99492   2.00185   2.00635
  Beta virt. eigenvalues --    2.00866   2.01155   2.01768   2.02165   2.02699
  Beta virt. eigenvalues --    2.03218   2.03814   2.04009   2.04307   2.05384
  Beta virt. eigenvalues --    2.05791   2.07231   2.07727   2.08320   2.08383
  Beta virt. eigenvalues --    2.08721   2.09465   2.10269   2.10750   2.11008
  Beta virt. eigenvalues --    2.11550   2.11741   2.12444   2.13246   2.13858
  Beta virt. eigenvalues --    2.14131   2.14652   2.15858   2.16291   2.16741
  Beta virt. eigenvalues --    2.17191   2.18138   2.18638   2.19542   2.20591
  Beta virt. eigenvalues --    2.21497   2.22178   2.22800   2.23172   2.23467
  Beta virt. eigenvalues --    2.24061   2.24528   2.25117   2.25973   2.26547
  Beta virt. eigenvalues --    2.27482   2.28877   2.29640   2.30136   2.30434
  Beta virt. eigenvalues --    2.32550   2.32765   2.33113   2.34185   2.35263
  Beta virt. eigenvalues --    2.36153   2.36920   2.39413   2.40485   2.40806
  Beta virt. eigenvalues --    2.41942   2.43263   2.45193   2.48635   2.48981
  Beta virt. eigenvalues --    2.49932   2.52260   2.54924   2.55725   2.56162
  Beta virt. eigenvalues --    2.56803   2.56950   2.57447   2.58228   2.59373
  Beta virt. eigenvalues --    2.60665   2.61439   2.61774   2.62331   2.62533
  Beta virt. eigenvalues --    2.62700   2.62902   2.63295   2.63800   2.64458
  Beta virt. eigenvalues --    2.64973   2.65208   2.65588   2.66309   2.67024
  Beta virt. eigenvalues --    2.67545   2.67844   2.68280   2.69271   2.69485
  Beta virt. eigenvalues --    2.69663   2.70127   2.70276   2.71260   2.71982
  Beta virt. eigenvalues --    2.72581   2.73173   2.73462   2.73890   2.74772
  Beta virt. eigenvalues --    2.74958   2.75299   2.75927   2.76066   2.76461
  Beta virt. eigenvalues --    2.77082   2.77937   2.78696   2.79057   2.79333
  Beta virt. eigenvalues --    2.80243   2.81185   2.81467   2.82194   2.82433
  Beta virt. eigenvalues --    2.82944   2.83135   2.84393   2.86531   2.87206
  Beta virt. eigenvalues --    2.87598   2.88931   2.89701   2.90608   2.91819
  Beta virt. eigenvalues --    2.93929   2.94790   2.95475   2.95823   2.96737
  Beta virt. eigenvalues --    2.97562   2.97768   2.97879   2.98239   2.98772
  Beta virt. eigenvalues --    2.99321   2.99439   2.99591   2.99647   3.00156
  Beta virt. eigenvalues --    3.00963   3.01665   3.02594   3.03595   3.03754
  Beta virt. eigenvalues --    3.03903   3.04044   3.04074   3.04138   3.04261
  Beta virt. eigenvalues --    3.04274   3.04556   3.04599   3.04728   3.04769
  Beta virt. eigenvalues --    3.05009   3.05185   3.05249   3.05497   3.05939
  Beta virt. eigenvalues --    3.06003   3.07042   3.07546   3.07719   3.08383
  Beta virt. eigenvalues --    3.09916   3.10940   3.12851   3.15644   3.15875
  Beta virt. eigenvalues --    3.15996   3.16039   3.16161   3.16289   3.16993
  Beta virt. eigenvalues --    3.20907   3.22041   3.24312   3.24867   3.25639
  Beta virt. eigenvalues --    3.26933   3.27641   3.30346   3.32409   3.33267
  Beta virt. eigenvalues --    3.37054   3.38247   3.39127   3.39264   3.39564
  Beta virt. eigenvalues --    3.39958   3.40715   3.40907   3.41298   3.41583
  Beta virt. eigenvalues --    3.42205   3.49320   3.50980   3.51609   3.51967
  Beta virt. eigenvalues --    3.52279   3.52675   3.52904   3.53174   3.53539
  Beta virt. eigenvalues --    3.55268   3.61837   3.64021   3.64426   3.65509
  Beta virt. eigenvalues --    3.66931   3.67061   3.67682   3.82279   3.82438
  Beta virt. eigenvalues --    3.82738   3.83165   3.83392   3.83843   6.48479
  Beta virt. eigenvalues --    6.50198   6.52047   6.53872   6.58023   7.91628
  Beta virt. eigenvalues --    7.92878   7.93311   7.97772   7.99839   8.01157
  Beta virt. eigenvalues --    8.05840   9.70789  13.96744  13.99551  14.01401
  Beta virt. eigenvalues --   24.89673  84.99795  92.03055  92.11023  92.15736
  Beta virt. eigenvalues --  314.05710 713.81153
          Condensed to atoms (all electrons):
          Atomic-Atomic Spin Densities.
 Mulliken charges and spin densities:
               1          2
     1  C   -0.003363   0.000917
     2  C    0.030292   0.001587
     3  C    0.008378   0.000004
     4  C    0.023185   0.002547
     5  C    0.006846  -0.001133
     6  C    0.015495   0.002912
     7  C   -0.011930   0.399880
     8  C    0.032478  -0.018242
     9  C    0.017995  -0.040547
    10  H   -0.004060  -0.000174
    11  H    0.019684   0.000004
    12  H    0.023116  -0.000169
    13  H    0.020436   0.000090
    14  H    0.013329  -0.000094
    15  O   -0.176258   0.068623
    16  O   -0.195944   0.055686
    17  O   -0.473758   0.000747
    18  O   -0.458538   0.000019
    19  O   -0.483122   0.002179
    20  S    0.847445   0.000617
    21  S    0.850112   0.000124
    22  S    0.830819   0.000045
    23  O   -0.476717   0.000740
    24  O   -0.452097  -0.000035
    25  O   -0.468513   0.000129
    26  O   -0.449199   0.000229
    27  O   -0.478853   0.000069
    28  O   -0.446666  -0.000002
    29  C    0.409527  -0.000000
    30  C    0.405201   0.000044
    31  C    0.410009   0.000108
    32  F   -0.135787   0.000000
    33  F   -0.136032   0.000001
    34  F   -0.135128   0.000000
    35  F   -0.136118   0.000007
    36  F   -0.134490   0.000000
    37  F   -0.138819   0.000000
    38  F   -0.140798   0.000006
    39  F   -0.124273   0.000008
    40  F   -0.139328   0.000042
    41  C    0.246487   0.010741
    42  H    0.062105  -0.000252
    43  C   -0.139531  -0.002106
    44  C   -0.133425   0.003613
    45  C   -0.147125   0.005384
    46  C    0.151352   0.122127
    47  C    0.077164   0.075917
    48  C    0.090837   0.015708
    49  H    0.030624  -0.008463
    50  H    0.098193  -0.005836
    51  H    0.086549  -0.001542
    52  N    0.158919   0.002948
    53  N    0.154931  -0.000754
    54  N   -0.100187   0.225130
    55  N    0.008049   0.038650
    56  C    0.110404  -0.086539
    57  H    0.113766   0.022928
    58  O   -0.213945   0.095196
    59  Yb   0.495380   0.002848
    60  C    0.128776   0.000515
    61  H    0.079941   0.000134
    62  H    0.058034  -0.000264
    63  H    0.070357  -0.000253
    64  C    0.113333   0.006936
    65  H    0.094155   0.001775
    66  H    0.064954  -0.000244
    67  H    0.075348  -0.001269
 Sum of Mulliken charges =  -0.00000   1.00000
 Mulliken charges and spin densities with hydrogens summed into heavy atoms:
               1          2
     1  C   -0.003363   0.000917
     2  C    0.026231   0.001413
     3  C    0.028061   0.000008
     4  C    0.046301   0.002378
     5  C    0.027281  -0.001043
     6  C    0.028824   0.002819
     7  C   -0.011930   0.399880
     8  C    0.032478  -0.018242
     9  C    0.017995  -0.040547
    15  O   -0.176258   0.068623
    16  O   -0.195944   0.055686
    17  O   -0.473758   0.000747
    18  O   -0.458538   0.000019
    19  O   -0.483122   0.002179
    20  S    0.847445   0.000617
    21  S    0.850112   0.000124
    22  S    0.830819   0.000045
    23  O   -0.476717   0.000740
    24  O   -0.452097  -0.000035
    25  O   -0.468513   0.000129
    26  O   -0.449199   0.000229
    27  O   -0.478853   0.000069
    28  O   -0.446666  -0.000002
    29  C    0.409527  -0.000000
    30  C    0.405201   0.000044
    31  C    0.410009   0.000108
    32  F   -0.135787   0.000000
    33  F   -0.136032   0.000001
    34  F   -0.135128   0.000000
    35  F   -0.136118   0.000007
    36  F   -0.134490   0.000000
    37  F   -0.138819   0.000000
    38  F   -0.140798   0.000006
    39  F   -0.124273   0.000008
    40  F   -0.139328   0.000042
    41  C    0.308592   0.010489
    43  C   -0.139531  -0.002106
    44  C   -0.133425   0.003613
    45  C   -0.147125   0.005384
    46  C    0.181976   0.113664
    47  C    0.175357   0.070080
    48  C    0.177386   0.014166
    52  N    0.158919   0.002948
    53  N    0.154931  -0.000754
    54  N   -0.100187   0.225130
    55  N    0.008049   0.038650
    56  C    0.224171  -0.063612
    58  O   -0.213945   0.095196
    59  Yb   0.495380   0.002848
    60  C    0.337108   0.000133
    64  C    0.347789   0.007198
 APT charges:
               1
     1  C   -1.267705
     2  C   -0.066517
     3  C   -0.469085
     4  C   -0.712117
     5  C   -0.550027
     6  C   -0.176023
     7  C   -0.274120
     8  C   -0.244776
     9  C   -0.313933
    10  H   -0.278301
    11  H    0.849302
    12  H    1.657522
    13  H    1.302513
    14  H    0.179153
    15  O   -0.380969
    16  O   -0.319805
    17  O   -0.696814
    18  O   -0.750570
    19  O   -0.755416
    20  S    0.111617
    21  S    0.185021
    22  S    0.035920
    23  O   -0.342345
    24  O    0.208322
    25  O   -0.445518
    26  O    0.122242
    27  O   -0.492848
    28  O    0.390416
    29  C   -0.708154
    30  C   -0.731580
    31  C   -0.643490
    32  F    0.686449
    33  F   -0.128683
    34  F    0.429148
    35  F    0.663010
    36  F    0.023573
    37  F    0.405160
    38  F    0.190320
    39  F    0.015084
    40  F    0.670001
    41  C   -0.275589
    42  H    0.115694
    43  C   -1.220071
    44  C   -2.834720
    45  C   -1.769231
    46  C   -0.529285
    47  C   -0.720897
    48  C   -0.178684
    49  H    0.068041
    50  H    0.861493
    51  H    0.501792
    52  N    3.965954
    53  N    2.176531
    54  N    0.010772
    55  N    0.245396
    56  C   -0.243349
    57  H    0.472726
    58  O    0.102465
    59  Yb   0.463483
    60  C   -0.533683
    61  H    0.317498
    62  H    0.546589
    63  H    0.457669
    64  C   -0.556617
    65  H    0.594658
    66  H    0.419448
    67  H    0.165941
 Sum of APT charges =  -0.00000
 APT charges with hydrogens summed into heavy atoms:
               1
     1  C   -1.267705
     2  C   -0.344818
     3  C    0.380217
     4  C    0.945406
     5  C    0.752486
     6  C    0.003130
     7  C   -0.274120
     8  C   -0.244776
     9  C   -0.313933
    15  O   -0.380969
    16  O   -0.319805
    17  O   -0.696814
    18  O   -0.750570
    19  O   -0.755416
    20  S    0.111617
    21  S    0.185021
    22  S    0.035920
    23  O   -0.342345
    24  O    0.208322
    25  O   -0.445518
    26  O    0.122242
    27  O   -0.492848
    28  O    0.390416
    29  C   -0.708154
    30  C   -0.731580
    31  C   -0.643490
    32  F    0.686449
    33  F   -0.128683
    34  F    0.429148
    35  F    0.663010
    36  F    0.023573
    37  F    0.405160
    38  F    0.190320
    39  F    0.015084
    40  F    0.670001
    41  C   -0.159895
    43  C   -1.220071
    44  C   -2.834720
    45  C   -1.769231
    46  C   -0.461245
    47  C    0.140596
    48  C    0.323107
    52  N    3.965954
    53  N    2.176531
    54  N    0.010772
    55  N    0.245396
    56  C    0.229377
    58  O    0.102465
    59  Yb   0.463483
    60  C    0.788073
    64  C    0.623431
 Electronic spatial extent (au):  <R**2>=          33381.1268
 Charge=             -0.0000 electrons
 Dipole moment (field-independent basis, Debye):
    X=            -20.3170    Y=              5.6665    Z=              5.1815  Tot=             21.7195
 Quadrupole moment (field-independent basis, Debye-Ang):
   XX=           -306.2669   YY=           -332.0717   ZZ=           -352.5696
   XY=              7.6922   XZ=             -7.9216   YZ=             15.4866
 Traceless Quadrupole moment (field-independent basis, Debye-Ang):
   XX=             24.0358   YY=             -1.7690   ZZ=            -22.2669
   XY=              7.6922   XZ=             -7.9216   YZ=             15.4866
 Octapole moment (field-independent basis, Debye-Ang**2):
  XXX=            260.7629  YYY=            -11.8990  ZZZ=            -28.2493  XYY=             52.1830
  XXY=           -219.1012  XXZ=            -61.6575  XZZ=             50.3478  YZZ=             29.2200
  YYZ=             82.5072  XYZ=             31.5129
 Hexadecapole moment (field-independent basis, Debye-Ang**3):
 XXXX=         -23897.7112 YYYY=         -10860.3636 ZZZZ=          -6189.0581 XXXY=           1701.3328
 XXXZ=            335.0640 YYYX=            -64.5978 YYYZ=            216.9281 ZZZX=            -12.8337
 ZZZY=            100.6073 XXYY=          -5798.8553 XXZZ=          -5397.1006 YYZZ=          -2868.4654
 XXYZ=            -63.6150 YYXZ=             20.7939 ZZXY=            218.8630
 N-N= 1.073444812469D+04 E-N=-3.388942695489D+04  KE= 4.772846715599D+03
  Exact polarizability:   0.000   0.000   0.000   0.000   0.000   0.000
 Approx polarizability: 492.969  54.399 420.223  -3.583  25.641 518.573
                          Isotropic Fermi Contact Couplings
        Atom                 a.u.       MegaHertz       Gauss      10(-4) cm-1
     1  C(13)              0.00212       2.37770       0.84842       0.79312
     2  C(13)              0.00005       0.05385       0.01921       0.01796
     3  C(13)             -0.00008      -0.09201      -0.03283      -0.03069
     4  C(13)              0.00041       0.45669       0.16296       0.15233
     5  C(13)             -0.00016      -0.17485      -0.06239      -0.05832
     6  C(13)              0.00068       0.76656       0.27353       0.25570
     7  C(13)              0.09932     111.65829      39.84245      37.24520
     8  C(13)             -0.01657     -18.62278      -6.64507      -6.21189
     9  C(13)             -0.02537     -28.52176     -10.17727      -9.51383
    10  H(1)              -0.00001      -0.05211      -0.01859      -0.01738
    11  H(1)               0.00001       0.03046       0.01087       0.01016
    12  H(1)              -0.00004      -0.19196      -0.06849      -0.06403
    13  H(1)               0.00003       0.11835       0.04223       0.03948
    14  H(1)               0.00000       0.02143       0.00765       0.00715
    15  O(17)              0.00711      -4.30979      -1.53784      -1.43759
    16  O(17)              0.00439      -2.66144      -0.94967      -0.88776
    17  O(17)              0.00172      -1.04040      -0.37124      -0.34704
    18  O(17)             -0.00016       0.09901       0.03533       0.03303
    19  O(17)              0.00597      -3.61903      -1.29136      -1.20718
    20  S(33)              0.00043       0.14887       0.05312       0.04966
    21  S(33)             -0.00000      -0.00018      -0.00007      -0.00006
    22  S(33)             -0.00001      -0.00305      -0.00109      -0.00102
    23  O(17)              0.00029      -0.17768      -0.06340      -0.05927
    24  O(17)              0.00004      -0.02407      -0.00859      -0.00803
    25  O(17)             -0.00002       0.01267       0.00452       0.00423
    26  O(17)             -0.00012       0.07310       0.02609       0.02438
    27  O(17)              0.00000      -0.00025      -0.00009      -0.00008
    28  O(17)             -0.00000       0.00018       0.00006       0.00006
    29  C(13)             -0.00001      -0.01140      -0.00407      -0.00380
    30  C(13)              0.00007       0.08255       0.02945       0.02753
    31  C(13)              0.00006       0.06456       0.02304       0.02154
    32  F(19)              0.00000       0.00016       0.00006       0.00005
    33  F(19)             -0.00000      -0.00209      -0.00075      -0.00070
    34  F(19)              0.00000       0.00107       0.00038       0.00036
    35  F(19)              0.00000       0.01231       0.00439       0.00411
    36  F(19)             -0.00000      -0.01596      -0.00569      -0.00532
    37  F(19)             -0.00000      -0.01231      -0.00439      -0.00411
    38  F(19)             -0.00001      -0.02523      -0.00900      -0.00842
    39  F(19)             -0.00000      -0.01463      -0.00522      -0.00488
    40  F(19)              0.00005       0.21408       0.07639       0.07141
    41  C(13)              0.00061       0.68670       0.24503       0.22906
    42  H(1)               0.00044       1.94669       0.69463       0.64935
    43  C(13)              0.00295       3.32061       1.18488       1.10764
    44  C(13)              0.00988      11.10687       3.96321       3.70485
    45  C(13)              0.00283       3.17923       1.13443       1.06048
    46  C(13)              0.02588      29.09599      10.38217       9.70538
    47  C(13)              0.01436      16.14785       5.76196       5.38634
    48  C(13)             -0.00290      -3.26111      -1.16364      -1.08779
    49  H(1)              -0.00216      -9.66888      -3.45010      -3.22519
    50  H(1)              -0.00174      -7.77114      -2.77294      -2.59217
    51  H(1)              -0.00037      -1.63365      -0.58293      -0.54493
    52  N(14)              0.00065       0.21125       0.07538       0.07046
    53  N(14)              0.00133       0.43106       0.15381       0.14378
    54  N(14)              0.04345      14.03840       5.00925       4.68271
    55  N(14)             -0.00527      -1.70403      -0.60804      -0.56840
    56  C(13)             -0.03747     -42.12492     -15.03122     -14.05136
    57  H(1)               0.01049      46.88111      16.72835      15.63786
    58  O(17)              0.00365      -2.21558      -0.79057      -0.73904
    59  Yb(171             0.00139       1.09995       0.39249       0.36690
    60  C(13)              0.00017       0.18718       0.06679       0.06243
    61  H(1)              -0.00009      -0.41954      -0.14970      -0.13994
    62  H(1)              -0.00032      -1.43639      -0.51254      -0.47913
    63  H(1)              -0.00002      -0.07124      -0.02542      -0.02376
    64  C(13)              0.00401       4.50845       1.60873       1.50386
    65  H(1)               0.00101       4.50344       1.60694       1.50218
    66  H(1)              -0.00010      -0.46920      -0.16742      -0.15651
    67  H(1)              -0.00043      -1.94030      -0.69235      -0.64721
 --------------------------------------------------------
       Center         ----  Spin Dipole Couplings  ----
                      3XX-RR        3YY-RR        3ZZ-RR
 --------------------------------------------------------
     1   Atom        0.004039      0.000129     -0.004168
     2   Atom        0.002032     -0.000360     -0.001672
     3   Atom        0.001172     -0.000473     -0.000699
     4   Atom        0.000495      0.001280     -0.001775
     5   Atom        0.000608     -0.000291     -0.000317
     6   Atom        0.002456     -0.000014     -0.002442
     7   Atom       -0.208247      0.415621     -0.207374
     8   Atom       -0.014945     -0.027566      0.042511
     9   Atom        0.003202     -0.010646      0.007444
    10   Atom        0.001522     -0.001423     -0.000099
    11   Atom        0.000378     -0.000190     -0.000188
    12   Atom        0.000494     -0.000005     -0.000489
    13   Atom        0.000399     -0.000057     -0.000342
    14   Atom        0.000390     -0.000249     -0.000141
    15   Atom       -0.097452      0.225276     -0.127824
    16   Atom       -0.042106     -0.108865      0.150971
    17   Atom        0.005608     -0.002411     -0.003198
    18   Atom        0.000509      0.000248     -0.000757
    19   Atom        0.012483     -0.003411     -0.009072
    20   Atom       -0.000888     -0.000094      0.000982
    21   Atom        0.001192     -0.000717     -0.000475
    22   Atom        0.000609     -0.000303     -0.000306
    23   Atom       -0.000870      0.000568      0.000302
    24   Atom       -0.000753      0.000247      0.000506
    25   Atom        0.001424     -0.000985     -0.000439
    26   Atom        0.000348      0.000273     -0.000621
    27   Atom        0.000974     -0.000875     -0.000099
    28   Atom        0.000205     -0.000223      0.000018
    29   Atom        0.000382     -0.000128     -0.000254
    30   Atom        0.000725     -0.000259     -0.000466
    31   Atom       -0.000163      0.000669     -0.000506
    32   Atom        0.000314     -0.000154     -0.000160
    33   Atom        0.000490     -0.000159     -0.000331
    34   Atom        0.000197      0.000001     -0.000198
    35   Atom        0.000448     -0.000173     -0.000275
    36   Atom        0.000692     -0.000313     -0.000379
    37   Atom        0.000530     -0.000093     -0.000437
    38   Atom       -0.000339      0.000841     -0.000502
    39   Atom        0.000066      0.000382     -0.000448
    40   Atom       -0.000242      0.000678     -0.000436
    41   Atom       -0.004930      0.021911     -0.016981
    42   Atom       -0.002334     -0.000472      0.002806
    43   Atom       -0.007701      0.025631     -0.017930
    44   Atom        0.006378     -0.005923     -0.000454
    45   Atom        0.002054     -0.003325      0.001271
    46   Atom       -0.055358      0.118370     -0.063012
    47   Atom       -0.018615      0.063836     -0.045221
    48   Atom       -0.007511      0.020077     -0.012566
    49   Atom       -0.001371      0.000272      0.001099
    50   Atom       -0.005030     -0.002565      0.007595
    51   Atom        0.000857     -0.000019     -0.000837
    52   Atom       -0.001075      0.000859      0.000216
    53   Atom        0.002374     -0.003649      0.001276
    54   Atom       -0.161432      0.450723     -0.289291
    55   Atom       -0.048136      0.101767     -0.053631
    56   Atom        0.020773     -0.043046      0.022273
    57   Atom       -0.002603      0.002314      0.000289
    58   Atom       -0.246146      0.483445     -0.237299
    59   Atom        0.006068      0.012812     -0.018880
    60   Atom       -0.003077     -0.003960      0.007036
    61   Atom       -0.002471     -0.001591      0.004061
    62   Atom       -0.002485     -0.002770      0.005256
    63   Atom       -0.001318     -0.001838      0.003156
    64   Atom       -0.006337      0.000096      0.006241
    65   Atom       -0.002656      0.000728      0.001928
[...]
    28   Atom       -0.000420      0.000885     -0.000472
    29   Atom       -0.000562      0.000402     -0.000174
    30   Atom        0.000796     -0.000082     -0.000056
    31   Atom       -0.001199     -0.000347      0.000387
    32   Atom       -0.000254      0.000331     -0.000105
    33   Atom       -0.000511      0.000244     -0.000085
    34   Atom       -0.000467      0.000302     -0.000189
    35   Atom        0.000535     -0.000211     -0.000148
    36   Atom        0.000548      0.000031      0.000014
    37   Atom        0.000645      0.000025      0.000027
    38   Atom       -0.000830     -0.000087      0.000320
    39   Atom       -0.001039     -0.000194     -0.000034
    40   Atom       -0.001132     -0.000365      0.000636
    41   Atom       -0.003701     -0.016624      0.004105
    42   Atom        0.001219     -0.006492     -0.001250
    43   Atom       -0.006321     -0.002805      0.005037
    44   Atom       -0.001067     -0.004172      0.000893
    45   Atom       -0.004010      0.001207     -0.000797
    46   Atom        0.000285     -0.000156      0.002641
    47   Atom       -0.003811     -0.000642      0.004839
    48   Atom        0.003166      0.001048      0.002161
    49   Atom        0.001474     -0.000595     -0.000078
    50   Atom       -0.000227      0.000206      0.001878
    51   Atom        0.001105      0.000643      0.001645
    52   Atom        0.000928     -0.001717     -0.002628
    53   Atom        0.000091      0.001267     -0.000599
    54   Atom       -0.041782     -0.011758      0.016972
    55   Atom        0.000061     -0.001101      0.003133
    56   Atom        0.000775     -0.000312     -0.000992
    57   Atom       -0.003409      0.000757     -0.003186
    58   Atom        0.077475     -0.004093      0.099959
    59   Atom       -0.009491      0.001450     -0.004195
    60   Atom        0.001243      0.001345     -0.001165
    61   Atom        0.000843      0.001991      0.002182
    62   Atom       -0.001365      0.003902     -0.004018
    63   Atom        0.000191      0.000436     -0.001506
    64   Atom        0.001628     -0.000299     -0.009123
    65   Atom        0.000178     -0.001047     -0.002597
    66   Atom        0.002199     -0.001061     -0.006782
    67   Atom       -0.001139      0.001488     -0.004027
 --------------------------------------------------------


 ---------------------------------------------------------------------------------
              Anisotropic Spin Dipole Couplings in Principal Axis System
 ---------------------------------------------------------------------------------

       Atom             a.u.   MegaHertz   Gauss  10(-4) cm-1        Axes

              Baa    -0.0048    -0.650    -0.232    -0.217  0.1697  0.0378  0.9848
     1 C(13)  Bbb    -0.0038    -0.516    -0.184    -0.172 -0.1995  0.9799 -0.0032
              Bcc     0.0087     1.166     0.416     0.389  0.9651  0.1960 -0.1739
 
              Baa    -0.0032    -0.426    -0.152    -0.142 -0.3198  0.9369 -0.1411
     2 C(13)  Bbb    -0.0020    -0.268    -0.096    -0.089 -0.2073  0.0761  0.9753
              Bcc     0.0052     0.694     0.248     0.231  0.9245  0.3411  0.1699
 
              Baa    -0.0014    -0.182    -0.065    -0.061 -0.1904 -0.0547  0.9802
     3 C(13)  Bbb    -0.0001    -0.013    -0.005    -0.004 -0.2844  0.9587 -0.0017
              Bcc     0.0015     0.195     0.070     0.065  0.9396  0.2790  0.1982
 
              Baa    -0.0012    -0.164    -0.058    -0.055 -0.4681  0.8818 -0.0570
     4 C(13)  Bbb    -0.0002    -0.033    -0.012    -0.011  0.0035  0.0663  0.9978
              Bcc     0.0015     0.196     0.070     0.066  0.8837  0.4668 -0.0342
 
              Baa    -0.0012    -0.159    -0.057    -0.053  0.2362  0.0924  0.9673
     5 C(13)  Bbb     0.0002     0.033     0.012     0.011 -0.5056  0.8618  0.0411
              Bcc     0.0009     0.126     0.045     0.042  0.8298  0.4987 -0.2503
 
              Baa    -0.0021    -0.283    -0.101    -0.094 -0.4306  0.8844 -0.1804
     6 C(13)  Bbb    -0.0010    -0.140    -0.050    -0.047  0.2690  0.3165  0.9097
              Bcc     0.0031     0.423     0.151     0.141  0.8616  0.3432 -0.3741
 
              Baa    -0.3773   -50.625   -18.064   -16.887  0.9927  0.0888  0.0820
     7 C(13)  Bbb    -0.3665   -49.179   -17.548   -16.404 -0.0564 -0.2604  0.9639
              Bcc     0.7437    99.804    35.612    33.291 -0.1069  0.9614  0.2535
 
              Baa    -0.0352    -4.729    -1.687    -1.577 -0.5035  0.8599  0.0845
     8 C(13)  Bbb     0.0046     0.612     0.218     0.204  0.8022  0.5015 -0.3239
              Bcc     0.0307     4.117     1.469     1.373  0.3209  0.0953  0.9423
 
              Baa    -0.0299    -4.010    -1.431    -1.337 -0.2019  0.9623 -0.1823
     9 C(13)  Bbb     0.0004     0.058     0.021     0.019  0.6303  0.2701  0.7278
              Bcc     0.0294     3.952     1.410     1.318  0.7496  0.0320 -0.6611
 
              Baa    -0.0033    -1.750    -0.625    -0.584 -0.0047  0.9235 -0.3835
    10 H(1)   Bbb    -0.0031    -1.656    -0.591    -0.552 -0.5423  0.3198  0.7769
              Bcc     0.0064     3.406     1.215     1.136  0.8402  0.2116  0.4993
 
              Baa    -0.0007    -0.362    -0.129    -0.121 -0.0490  0.7508 -0.6588
    11 H(1)   Bbb    -0.0006    -0.328    -0.117    -0.109 -0.5318  0.5387  0.6535
              Bcc     0.0013     0.690     0.246     0.230  0.8454  0.3824  0.3728
 
              Baa    -0.0004    -0.199    -0.071    -0.066 -0.4322  0.8950 -0.1105
    12 H(1)   Bbb    -0.0003    -0.175    -0.063    -0.058 -0.0488  0.0991  0.9939
              Bcc     0.0007     0.374     0.134     0.125  0.9005  0.4349  0.0009
 
              Baa    -0.0005    -0.252    -0.090    -0.084  0.3443  0.1554  0.9259
    13 H(1)   Bbb    -0.0004    -0.230    -0.082    -0.077 -0.4191  0.9080  0.0034
              Bcc     0.0009     0.482     0.172     0.161  0.8402  0.3892 -0.3777
 
              Baa    -0.0012    -0.619    -0.221    -0.206  0.6171 -0.0417  0.7858
    14 H(1)   Bbb    -0.0011    -0.595    -0.212    -0.198 -0.1814  0.9641  0.1937
              Bcc     0.0023     1.214     0.433     0.405  0.7657  0.2621 -0.5874
 
              Baa    -0.3306    23.925     8.537     7.981  0.5136 -0.2072  0.8326
    15 O(17)  Bbb    -0.3162    22.880     8.164     7.632  0.8227  0.3946 -0.4093
              Bcc     0.6468   -46.805   -16.701   -15.613 -0.2437  0.8952  0.3731
 
              Baa    -0.2544    18.406     6.568     6.139  0.3684  0.7040 -0.6072
    16 O(17)  Bbb    -0.2380    17.218     6.144     5.743  0.6904  0.2303  0.6858
              Bcc     0.4923   -35.623   -12.711   -11.883 -0.6226  0.6718  0.4012
 
              Baa    -0.0036     0.259     0.092     0.086 -0.5934  0.7639  0.2537
    17 O(17)  Bbb    -0.0030     0.220     0.079     0.074 -0.0548 -0.3529  0.9341
              Bcc     0.0066    -0.479    -0.171    -0.160  0.8031  0.5403  0.2513
 
              Baa    -0.0038     0.278     0.099     0.093  0.6398  0.7673 -0.0431
    18 O(17)  Bbb    -0.0033     0.236     0.084     0.079 -0.0926  0.1326  0.9868
              Bcc     0.0071    -0.514    -0.183    -0.171  0.7629 -0.6274  0.1559
 
              Baa    -0.0264     1.910     0.682     0.637 -0.0685 -0.1254  0.9897
    19 O(17)  Bbb    -0.0199     1.437     0.513     0.479  0.3066  0.9414  0.1405
              Bcc     0.0463    -3.347    -1.194    -1.116  0.9494 -0.3131  0.0261
 
              Baa    -0.0049    -0.201    -0.072    -0.067  0.8799  0.4423  0.1738
    20 S(33)  Bbb    -0.0029    -0.117    -0.042    -0.039 -0.2719  0.7685 -0.5793
              Bcc     0.0078     0.318     0.113     0.106 -0.3898  0.4624  0.7964
 
              Baa    -0.0016    -0.067    -0.024    -0.022 -0.5843  0.6938 -0.4210
    21 S(33)  Bbb    -0.0014    -0.057    -0.020    -0.019 -0.2011  0.3788  0.9034
              Bcc     0.0030     0.125     0.045     0.042  0.7862  0.6125 -0.0819
 
              Baa    -0.0011    -0.046    -0.016    -0.015  0.2469  0.9301  0.2720
    22 S(33)  Bbb    -0.0011    -0.044    -0.016    -0.015 -0.5789 -0.0835  0.8111
              Bcc     0.0022     0.089     0.032     0.030  0.7771 -0.3578  0.5178
 
              Baa    -0.0065     0.470     0.168     0.157  0.6454  0.5726  0.5055
    23 O(17)  Bbb    -0.0021     0.149     0.053     0.050  0.7338 -0.2810 -0.6186
              Bcc     0.0085    -0.619    -0.221    -0.206 -0.2121  0.7702 -0.6015
 
              Baa    -0.0019     0.141     0.050     0.047  0.3053  0.7456 -0.5923
    24 O(17)  Bbb    -0.0012     0.086     0.031     0.029  0.9324 -0.1077  0.3450
              Bcc     0.0031    -0.227    -0.081    -0.076 -0.1935  0.6576  0.7281
 
              Baa    -0.0018     0.130     0.046     0.043  0.0345  0.5689  0.8216
    25 O(17)  Bbb    -0.0015     0.107     0.038     0.036 -0.4102  0.7578 -0.5075
              Bcc     0.0033    -0.237    -0.085    -0.079  0.9113  0.3195 -0.2595
 
              Baa    -0.0018     0.128     0.046     0.043  0.2267  0.1043  0.9683
    26 O(17)  Bbb    -0.0016     0.113     0.040     0.038  0.7183 -0.6894 -0.0939
              Bcc     0.0033    -0.241    -0.086    -0.081  0.6578  0.7168 -0.2313
 
              Baa    -0.0019     0.137     0.049     0.046 -0.0929  0.9356  0.3407
    27 O(17)  Bbb    -0.0016     0.115     0.041     0.038 -0.5603 -0.3320  0.7588
              Bcc     0.0035    -0.252    -0.090    -0.084  0.8231 -0.1204  0.5550
 
              Baa    -0.0007     0.050     0.018     0.017  0.2024  0.9435  0.2623
    28 O(17)  Bbb    -0.0007     0.048     0.017     0.016  0.7514  0.0222 -0.6595
              Bcc     0.0013    -0.097    -0.035    -0.032  0.6281 -0.3305  0.7045
 
              Baa    -0.0006    -0.076    -0.027    -0.025  0.4539  0.8813 -0.1316
    29 C(13)  Bbb    -0.0005    -0.064    -0.023    -0.021 -0.2130  0.2507  0.9443
              Bcc     0.0010     0.140     0.050     0.047  0.8652 -0.4006  0.3015
 
              Baa    -0.0006    -0.077    -0.028    -0.026 -0.5749  0.8167 -0.0499
    30 C(13)  Bbb    -0.0005    -0.074    -0.026    -0.025  0.0201  0.0751  0.9970
              Bcc     0.0011     0.151     0.054     0.050  0.8179  0.5722 -0.0596
 
              Baa    -0.0011    -0.149    -0.053    -0.050  0.6567  0.2153  0.7227
    31 C(13)  Bbb    -0.0009    -0.117    -0.042    -0.039 -0.5875 -0.4548  0.6693
              Bcc     0.0020     0.266     0.095     0.089 -0.4728  0.8642  0.1722
 
              Baa    -0.0004    -0.188    -0.067    -0.063  0.2325  0.9636  0.1321
    32 F(19)  Bbb    -0.0003    -0.164    -0.059    -0.055 -0.3834 -0.0340  0.9229
              Bcc     0.0007     0.352     0.126     0.117  0.8938 -0.2652  0.3616
 
              Baa    -0.0005    -0.265    -0.095    -0.088  0.3982  0.8812 -0.2548
    33 F(19)  Bbb    -0.0005    -0.242    -0.086    -0.081 -0.0624  0.3031  0.9509
              Bcc     0.0010     0.507     0.181     0.169  0.9152 -0.3627  0.1757
 
              Baa    -0.0004    -0.200    -0.072    -0.067  0.6288  0.7272 -0.2755
    34 F(19)  Bbb    -0.0003    -0.169    -0.060    -0.056 -0.1109  0.4345  0.8938
              Bcc     0.0007     0.369     0.132     0.123  0.7696 -0.5315  0.3538
 
              Baa    -0.0004    -0.201    -0.072    -0.067 -0.5953  0.7943 -0.1215
    35 F(19)  Bbb    -0.0004    -0.198    -0.071    -0.066  0.1081  0.2290  0.9674
              Bcc     0.0008     0.399     0.142     0.133  0.7962  0.5628 -0.2221
 
              Baa    -0.0005    -0.247    -0.088    -0.082 -0.4236  0.9056  0.0189
    36 F(19)  Bbb    -0.0004    -0.224    -0.080    -0.075 -0.0145 -0.0276  0.9995
              Bcc     0.0009     0.471     0.168     0.157  0.9057  0.4231  0.0248
 
              Baa    -0.0004    -0.219    -0.078    -0.073 -0.6679  0.7190 -0.1923
    37 F(19)  Bbb    -0.0004    -0.211    -0.075    -0.070 -0.1522  0.1211  0.9809
              Bcc     0.0009     0.430     0.154     0.144  0.7285  0.6844  0.0285
 
              Baa    -0.0009    -0.452    -0.161    -0.151  0.7122  0.3430 -0.6125
    38 F(19)  Bbb    -0.0008    -0.423    -0.151    -0.141  0.6148  0.1165  0.7800
              Bcc     0.0017     0.874     0.312     0.292 -0.3389  0.9321  0.1279
 
              Baa    -0.0009    -0.443    -0.158    -0.148  0.5326  0.4045  0.7434
    39 F(19)  Bbb    -0.0005    -0.271    -0.097    -0.090 -0.5491 -0.5032  0.6673
              Bcc     0.0014     0.715     0.255     0.238 -0.6441  0.7636  0.0459
 
              Baa    -0.0012    -0.588    -0.210    -0.196  0.6430  0.0908  0.7604
    40 F(19)  Bbb    -0.0010    -0.508    -0.181    -0.170  0.6562  0.4466 -0.6082
              Bcc     0.0022     1.096     0.391     0.366 -0.3949  0.8901  0.2276
 
              Baa    -0.0130    -1.748    -0.624    -0.583  0.4329 -0.5257  0.7323
    41 C(13)  Bbb    -0.0105    -1.410    -0.503    -0.470  0.4225  0.8359  0.3503
              Bcc     0.0235     3.157     1.127     1.053  0.7963 -0.1578 -0.5840
 
              Baa    -0.0059    -3.158    -1.127    -1.053 -0.2056  0.9786 -0.0098
    42 H(1)   Bbb    -0.0041    -2.196    -0.784    -0.733  0.8050  0.1748  0.5670
              Bcc     0.0100     5.355     1.911     1.786 -0.5566 -0.1087  0.8237
 
              Baa    -0.0127    -1.707    -0.609    -0.569  0.2780 -0.1034  0.9550
    43 C(13)  Bbb    -0.0068    -0.907    -0.324    -0.303  0.9245  0.2988 -0.2368
              Bcc     0.0195     2.614     0.933     0.872 -0.2608  0.9487  0.1787
 
              Baa    -0.0036    -0.486    -0.174    -0.162  0.1091  0.9896 -0.0936
    44 C(13)  Bbb    -0.0025    -0.339    -0.121    -0.113  0.6407  0.0020  0.7678
              Bcc     0.0062     0.826     0.295     0.275  0.7600 -0.1437 -0.6338
 
              Baa    -0.0033    -0.444    -0.158    -0.148  0.5897  0.8062 -0.0477
    45 C(13)  Bbb    -0.0021    -0.287    -0.102    -0.096 -0.1293  0.1525  0.9798
              Bcc     0.0054     0.730     0.261     0.244  0.7972 -0.5716  0.1942
 
              Baa    -0.0062    -0.834    -0.298    -0.278  0.1413 -0.1559  0.9776
    46 C(13)  Bbb    -0.0048    -0.645    -0.230    -0.215  0.9898  0.0060 -0.1421
              Bcc     0.0110     1.479     0.528     0.493  0.0163  0.9878  0.1552
 
              Baa    -0.0055    -0.741    -0.264    -0.247  0.7400  0.4873 -0.4635
    47 C(13)  Bbb    -0.0031    -0.415    -0.148    -0.138  0.6051 -0.1816  0.7752
              Bcc     0.0086     1.156     0.412     0.385 -0.2936  0.8541  0.4292
 
              Baa    -0.0040    -0.538    -0.192    -0.179 -0.6585  0.7343 -0.1648
    48 C(13)  Bbb    -0.0003    -0.039    -0.014    -0.013 -0.5599 -0.3317  0.7593
              Bcc     0.0043     0.577     0.206     0.192  0.5029  0.5923  0.6295
 
              Baa    -0.0028    -1.482    -0.529    -0.494  0.6512 -0.1317  0.7474
    49 H(1)   Bbb    -0.0016    -0.879    -0.314    -0.293  0.7221 -0.1953 -0.6636
              Bcc     0.0044     2.361     0.843     0.788  0.2334  0.9719 -0.0321
 
              Baa    -0.0017    -0.924    -0.330    -0.308  0.6696  0.6374 -0.3812
    50 H(1)   Bbb    -0.0011    -0.602    -0.215    -0.201  0.7425 -0.5850  0.3263
              Bcc     0.0029     1.527     0.545     0.509  0.0150  0.5016  0.8650
 
              Baa    -0.0015    -0.822    -0.293    -0.274  0.9465 -0.3142 -0.0730
    51 H(1)   Bbb    -0.0013    -0.684    -0.244    -0.228 -0.0961 -0.4907  0.8660
              Bcc     0.0028     1.507     0.538     0.503  0.3079  0.8127  0.4946
 
              Baa    -0.0038    -0.146    -0.052    -0.049  0.6033  0.1972  0.7727
    52 N(14)  Bbb    -0.0013    -0.049    -0.018    -0.016  0.7674 -0.4073 -0.4952
              Bcc     0.0051     0.195     0.070     0.065  0.2170  0.8918 -0.3971
 
              Baa    -0.0027    -0.105    -0.038    -0.035 -0.3002  0.1604  0.9403
    53 N(14)  Bbb     0.0010     0.040     0.014     0.013  0.1856  0.9768 -0.1074
              Bcc     0.0017     0.066     0.023     0.022  0.9357 -0.1422  0.3230
 
              Baa    -0.0313    -1.208    -0.431    -0.403 -0.5666 -0.5728  0.5923
    54 N(14)  Bbb    -0.0308    -1.188    -0.424    -0.396  0.6005  0.2052  0.7729
              Bcc     0.0621     2.396     0.855     0.799 -0.5642  0.7936  0.2277
 
              Baa    -0.0043    -0.167    -0.060    -0.056 -0.1237  0.9138 -0.3869
    55 N(14)  Bbb    -0.0006    -0.022    -0.008    -0.007  0.9749  0.1846  0.1242
              Bcc     0.0049     0.189     0.067     0.063 -0.1849  0.3618  0.9137
 
              Baa    -0.0023    -0.302    -0.108    -0.101  0.6855  0.0311  0.7274
    56 C(13)  Bbb    -0.0019    -0.254    -0.091    -0.085  0.7159 -0.2109 -0.6656
              Bcc     0.0041     0.556     0.198     0.185  0.1328  0.9770 -0.1669
 
              Baa    -0.0044    -2.341    -0.835    -0.781  0.2905  0.3885  0.8745
    57 H(1)   Bbb    -0.0032    -1.730    -0.617    -0.577  0.8959  0.2107 -0.3912
              Bcc     0.0076     4.071     1.453     1.358 -0.3362  0.8970 -0.2868
 
              Baa    -0.3616    26.162     9.335     8.727  0.9223 -0.1049  0.3720
    58 O(17)  Bbb    -0.3283    23.758     8.477     7.925 -0.3794 -0.0627  0.9231
              Bcc     0.6899   -49.919   -17.812   -16.651  0.0735  0.9925  0.0976
 
              Baa    -0.0182    -1.720    -0.614    -0.574  0.0071  0.1726  0.9850
    59 Yb(171 Bbb    -0.0008    -0.071    -0.025    -0.024  0.6193  0.7726 -0.1399
              Bcc     0.0190     1.791     0.639     0.597  0.7851 -0.6109  0.1014
 
              Baa    -0.0060    -0.811    -0.289    -0.270  0.8821 -0.4561 -0.1177
    60 C(13)  Bbb    -0.0027    -0.367    -0.131    -0.122  0.4628  0.8857  0.0363
              Bcc     0.0088     1.178     0.420     0.393  0.0877 -0.0865  0.9924
 
              Baa    -0.0045    -2.400    -0.857    -0.801 -0.5029  0.8611 -0.0752
    61 H(1)   Bbb    -0.0035    -1.858    -0.663    -0.620  0.8446  0.4711 -0.2544
              Bcc     0.0080     4.258     1.519     1.420  0.1836  0.1914  0.9642
 
              Baa    -0.0049    -2.605    -0.930    -0.869 -0.1194  0.9060  0.4061
    62 H(1)   Bbb    -0.0036    -1.911    -0.682    -0.637  0.9220  0.2529 -0.2931
              Bcc     0.0085     4.516     1.611     1.506  0.3682 -0.3395  0.8655
 
              Baa    -0.0033    -1.749    -0.624    -0.583 -0.1874  0.9638  0.1899
    63 H(1)   Bbb    -0.0018    -0.973    -0.347    -0.325  0.9807  0.1947 -0.0203
              Bcc     0.0051     2.722     0.971     0.908  0.0566 -0.1824  0.9816
 
              Baa    -0.0094    -1.259    -0.449    -0.420 -0.5253  0.7828  0.3338
    64 C(13)  Bbb    -0.0063    -0.851    -0.304    -0.284  0.8499  0.4635  0.2506
              Bcc     0.0157     2.110     0.753     0.704 -0.0414 -0.4153  0.9087
 
              Baa    -0.0029    -1.537    -0.548    -0.513  0.6581  0.6714  0.3408
    65 H(1)   Bbb    -0.0025    -1.325    -0.473    -0.442  0.7414 -0.6568 -0.1379
              Bcc     0.0054     2.862     1.021     0.955 -0.1313 -0.3434  0.9300
 
              Baa    -0.0053    -2.818    -1.006    -0.940 -0.5660  0.5865  0.5793
    66 H(1)   Bbb    -0.0041    -2.203    -0.786    -0.735  0.8058  0.2455  0.5389
              Bcc     0.0094     5.020     1.791     1.675  0.1738  0.7719 -0.6116
 
              Baa    -0.0031    -1.637    -0.584    -0.546 -0.3525  0.6158  0.7047
    67 H(1)   Bbb    -0.0025    -1.312    -0.468    -0.438  0.9051  0.4157  0.0895
              Bcc     0.0055     2.949     1.052     0.984  0.2378 -0.6693  0.7039
 

 ---------------------------------------------------------------------------------


 This type of calculation cannot be archived.


 KINETICS       FACT
 ---------  =  -------
 MECHANISM     FICTION
 Job cpu time:      24 days 20 hours 28 minutes  3.8 seconds.
 Elapsed time:       1 days  0 hours 56 minutes  0.4 seconds.
 File lengths (MBytes):  RWF=  12772 Int=      0 D2E=      0 Chk=    148 Scr=      8
 Normal termination of Gaussian 16 at Wed Mar  5 15:55:42 2025.
