 Entering Gaussian System, Link 0=/sysapps/ubuntu-applications/gaussian-new/avx/g16//g16
 Input=TS-min.in
 Output=TS-min.log
 Initial command:
 /sysapps/ubuntu-applications/gaussian-new/avx/g16/l1.exe "/data/temp-scratch/sgozem/308770/Gau-2566334.inp" -scrdir="/data/temp-scratch/sgozem/308770/"
 Entering Link 1 = /sysapps/ubuntu-applications/gaussian-new/avx/g16/l1.exe PID=   2566336.
  
 Copyright (c) 1988,1990,1992,1993,1995,1998,2003,2009,2016,
            Gaussian, Inc.  All Rights Reserved.
  
 This is part of the Gaussian(R) 16 program.  It is based on
 the Gaussian(R) 09 system (copyright 2009, Gaussian, Inc.),
 the Gaussian(R) 03 system (copyright 2003, Gaussian, Inc.),
 the Gaussian(R) 98 system (copyright 1998, Gaussian, Inc.),
 the Gaussian(R) 94 system (copyright 1995, Gaussian, Inc.),
 the Gaussian 92(TM) system (copyright 1992, Gaussian, Inc.),
 the Gaussian 90(TM) system (copyright 1990, Gaussian, Inc.),
 the Gaussian 88(TM) system (copyright 1988, Gaussian, Inc.),
 the Gaussian 86(TM) system (copyright 1986, Carnegie Mellon
 University), and the Gaussian 82(TM) system (copyright 1983,
 Carnegie Mellon University). Gaussian is a federally registered
 trademark of Gaussian, Inc.
  
 This software contains proprietary and confidential information,
 including trade secrets, belonging to Gaussian, Inc.
  
 This software is provided under written license and may be
 used, copied, transmitted, or stored only in accord with that
 written license.
  
 The following legend is applicable only to US Government
 contracts under FAR:
  
                    RESTRICTED RIGHTS LEGEND
  
 Use, reproduction and disclosure by the US Government is
 subject to restrictions as set forth in subparagraphs (a)
 and (c) of the Commercial Computer Software - Restricted
 Rights clause in FAR 52.227-19.
  
 Gaussian, Inc.
 340 Quinnipiac St., Bldg. 40, Wallingford CT 06492
  
  
 ---------------------------------------------------------------
 Warning -- This program may not be used in any manner that
 competes with the business of Gaussian, Inc. or will provide
 assistance to any competitor of Gaussian, Inc.  The licensee
 of this program is prohibited from giving any competitor of
 Gaussian, Inc. access to this program.  By using this program,
 the user acknowledges that Gaussian, Inc. is engaged in the
 business of creating and licensing software in the field of
 computational chemistry and represents and warrants to the
 licensee that it is not a competitor of Gaussian, Inc. and that
 it will not use this program in any manner prohibited above.
 ---------------------------------------------------------------
  

 Cite this work as:
 Gaussian 16, Revision A.03,
 M. J. Frisch, G. W. Trucks, H. B. Schlegel, G. E. Scuseria, 
 M. A. Robb, J. R. Cheeseman, G. Scalmani, V. Barone, 
 G. A. Petersson, H. Nakatsuji, X. Li, M. Caricato, A. V. Marenich, 
 J. Bloino, B. G. Janesko, R. Gomperts, B. Mennucci, H. P. Hratchian, 
 J. V. Ortiz, A. F. Izmaylov, J. L. Sonnenberg, D. Williams-Young, 
 F. Ding, F. Lipparini, F. Egidi, J. Goings, B. Peng, A. Petrone, 
 T. Henderson, D. Ranasinghe, V. G. Zakrzewski, J. Gao, N. Rega, 
 G. Zheng, W. Liang, M. Hada, M. Ehara, K. Toyota, R. Fukuda, 
 J. Hasegawa, M. Ishida, T. Nakajima, Y. Honda, O. Kitao, H. Nakai, 
 T. Vreven, K. Throssell, J. A. Montgomery, Jr., J. E. Peralta, 
 F. Ogliaro, M. J. Bearpark, J. J. Heyd, E. N. Brothers, K. N. Kudin, 
 V. N. Staroverov, T. A. Keith, R. Kobayashi, J. Normand, 
 K. Raghavachari, A. P. Rendell, J. C. Burant, S. S. Iyengar, 
 J. Tomasi, M. Cossi, J. M. Millam, M. Klene, C. Adamo, R. Cammi, 
 J. W. Ochterski, R. L. Martin, K. Morokuma, O. Farkas, 
 J. B. Foresman, and D. J. Fox, Gaussian, Inc., Wallingford CT, 2016.
 
 ******************************************
 Gaussian 16:  ES64L-G16RevA.03 25-Dec-2016
                 2-May-2025 
 ******************************************
 %chk=TS-min.chk
 %mem=92Gb
 %nprocshared=24
 Will use up to   24 processors via shared memory.
 ----------------------------------------------------------------------
 #P UMN15/genecp scf=(maxcyc=500) irc=(maxpoints=100,recorrect=never,ca
 lcfc,maxcycles=500,nogradstop) scrf=(smd,solvent=DiChloroEthane)
 ----------------------------------------------------------------------
 1/6=500,10=4,18=10,26=3,38=1,42=100,44=3,108=-1,131=1,172=1/1,23;
 2/12=2,17=6,18=5,29=1,40=1/2;
 3/5=7,11=2,16=1,17=8,25=1,30=1,70=32201,71=2,72=10,74=-73,116=2,140=1/1,2,3;
 4//1;
 5/5=2,7=500,38=5,53=10/2;
 8/6=4,10=90,11=11/1;
 11/6=1,8=1,9=11,15=111,16=1/1,2,10;
 10/6=1,13=1/2;
 6/7=2,8=2,9=2,10=2,28=1/1;
 7/10=1,18=20,25=1/1,2,3,16;
 1/6=500,10=4,18=10,26=3,42=100,44=3,108=-1,131=1/23(2);
 2/29=1/2;
 99/5=20/99;
 2/29=1/2;
 3/5=7,6=1,11=2,16=1,17=8,25=1,30=1,70=32205,71=2,72=10,74=-73,82=7,116=2,140=1/1,2,3;
 4/5=5,16=3,69=1/1;
 5/5=2,7=500,38=5,53=10/2;
 8/6=4,10=90,11=11/1;
 11/6=1,8=1,9=11,15=111,16=1/1,2,10;
 10/6=1,13=1/2;
 7/10=1,18=20,25=1/1,2,3,16;
 1/6=500,18=10,26=3,42=100,44=3,108=-1,131=1/23(-8);
 2/29=1/2;
 6/7=2,8=2,9=2,10=2,19=2,28=1/1;
 99/5=20,9=1/99;
 Leave Link    1 at Fri May  2 09:22:38 2025, MaxMem= 12348030976 cpu:               9.3 elap:               0.4
 (Enter /sysapps/ubuntu-applications/gaussian-new/avx/g16/l101.exe)
 ---
 Opt
 ---
 Symbolic Z-matrix:
 Charge =  0 Multiplicity = 1
 C                    -2.00736  -0.0579    1.04066 
 C                    -1.61063  -0.07533  -0.35548 
 C                    -0.97617  -0.10101   2.06105 
 O                     0.22013  -0.40037   1.85065 
 O                    -0.43909  -0.15363  -0.76476 
 O                    -2.60957  -0.19034  -1.19093 
 O                    -1.42108   0.05873   3.28002 
 C                    -2.35041  -0.34625  -2.58941 
 C                    -0.47625  -0.04256   4.35186 
 H                    -3.29684  -0.67157  -3.03648 
 H                    -1.5633   -1.09691  -2.74821 
 H                    -2.03997   0.6134   -3.02308 
 H                    -1.04438   0.12332   5.27236 
 H                     0.30331   0.72313   4.23987 
 H                    -0.01535  -1.03908   4.3604 
 O                     3.32431  -0.86678   1.28153 
 O                     2.21167  -0.65732  -1.86377 
 O                     0.32805   2.14596   0.82296 
 S                     0.9236    3.01447  -0.2332 
 S                     4.0043    0.3771    1.76274 
 S                     1.84204  -2.09635  -1.66275 
 O                     1.71156   2.0931   -1.11254 
 O                     1.54637   4.24857   0.16971 
 O                     3.03494   1.47693   1.46989 
 O                     4.64654   0.35212   3.04746 
 O                     1.41675  -2.2144   -0.24196 
 O                     1.00837  -2.71191  -2.66811 
 C                     3.46148  -2.9721   -1.74491 
 C                     5.29787   0.61945   0.47773 
 C                    -0.52154   3.52586  -1.25714 
 F                     3.32033  -4.18199  -1.23576 
 F                     4.36783  -2.30325  -1.05751 
 F                     3.83972  -3.06234  -3.00586 
 F                     4.67624   0.69387  -0.69437 
 F                     6.12441  -0.40592   0.47323 
 F                     5.96264   1.73368   0.69917 
 F                    -1.13057   2.46174  -1.75575 
 F                    -0.11024   4.29804  -2.24262 
 F                    -1.37065   4.19131  -0.49358 
 C                    -4.50893   0.3001    1.11668 
 C                    -4.81007  -1.20333   1.41294 
 C                    -6.20249  -1.60311   1.13536 
 C                    -4.60169  -1.3849    2.8709 
 C                    -1.6547   -2.90184   0.35512 
 C                    -3.44698  -3.18512  -1.23265 
 C                    -2.07719  -3.3895   -0.84235 
 H                    -0.63801  -3.04665   0.72358 
 H                    -3.83399  -3.58209  -2.17338 
 H                    -1.40688  -3.95457  -1.49189 
 N                    -7.31245  -1.89399   0.99322 
 N                    -4.45076  -1.50077   4.01138 
 N                    -3.85988  -2.06736   0.6853 
 N                    -4.29346  -2.53423  -0.49381 
 C                    -2.56947  -2.12248   1.14033 
 H                    -2.45077  -2.06402   2.22555 
 H                    -5.08511   0.84727   1.88008 
 C                    -4.86816   0.90487  -0.2324 
 C                    -4.31992   2.17589  -0.46926 
 C                    -5.65596   0.30931  -1.22047 
 C                    -4.52997   2.82636  -1.68211 
 H                    -3.69042   2.63932   0.29437 
 C                    -5.87751   0.97188  -2.43337 
 H                    -6.08612  -0.68272  -1.08858 
 C                    -5.31079   2.22305  -2.67363 
 H                    -4.07613   3.80534  -1.85406 
 H                    -6.4908    0.49125  -3.19886 
 H                    -5.4774    2.72857  -3.6274 
 Lu                    1.55004   0.16669   0.18168 
 O                    -3.16401   0.56035   1.48801 
 
 ITRead=  0  0  0  0  0  0  0  0  0  0  0  0  0  0  0  0  0  0  0  0
 ITRead=  0  0  0  0  0  0  0  0  0  0  0  0  0  0  0  0  0  0  0  0
 ITRead=  0  0  0  0  0  0  0  0  0  0  0  0  0  0  0  0  0  0  0  0
 ITRead=  0  0  0  0  0  0  0  0  0
 MicOpt= -1 -1 -1 -1 -1 -1 -1 -1 -1 -1 -1 -1 -1 -1 -1 -1 -1 -1 -1 -1
 MicOpt= -1 -1 -1 -1 -1 -1 -1 -1 -1 -1 -1 -1 -1 -1 -1 -1 -1 -1 -1 -1
 MicOpt= -1 -1 -1 -1 -1 -1 -1 -1 -1 -1 -1 -1 -1 -1 -1 -1 -1 -1 -1 -1
 MicOpt= -1 -1 -1 -1 -1 -1 -1 -1 -1
 NAtoms=     69 NQM=       69 NQMF=       0 NMMI=      0 NMMIF=      0
                NMic=       0 NMicF=      0.
                    Isotopes and Nuclear Properties:
 (Nuclear quadrupole moments (NQMom) in fm**2, nuclear magnetic moments (NMagM)
  in nuclear magnetons)

  Atom         1           2           3           4           5           6           7           8           9          10
 IAtWgt=          12          12          12          16          16          16          16          12          12           1
 AtmWgt=  12.0000000  12.0000000  12.0000000  15.9949146  15.9949146  15.9949146  15.9949146  12.0000000  12.0000000   1.0078250
 NucSpn=           0           0           0           0           0           0           0           0           0           1
 AtZEff=  -0.0000000  -0.0000000  -0.0000000  -0.0000000  -0.0000000  -0.0000000  -0.0000000  -0.0000000  -0.0000000  -0.0000000
 NQMom=    0.0000000   0.0000000   0.0000000   0.0000000   0.0000000   0.0000000   0.0000000   0.0000000   0.0000000   0.0000000
 NMagM=    0.0000000   0.0000000   0.0000000   0.0000000   0.0000000   0.0000000   0.0000000   0.0000000   0.0000000   2.7928460
 AtZNuc=   6.0000000   6.0000000   6.0000000   8.0000000   8.0000000   8.0000000   8.0000000   6.0000000   6.0000000   1.0000000

  Atom        11          12          13          14          15          16          17          18          19          20
 IAtWgt=           1           1           1           1           1          16          16          16          32          32
 AtmWgt=   1.0078250   1.0078250   1.0078250   1.0078250   1.0078250  15.9949146  15.9949146  15.9949146  31.9720718  31.9720718
 NucSpn=           1           1           1           1           1           0           0           0           0           0
 AtZEff=  -0.0000000  -0.0000000  -0.0000000  -0.0000000  -0.0000000  -0.0000000  -0.0000000  -0.0000000  -0.0000000  -0.0000000
 NQMom=    0.0000000   0.0000000   0.0000000   0.0000000   0.0000000   0.0000000   0.0000000   0.0000000   0.0000000   0.0000000
 NMagM=    2.7928460   2.7928460   2.7928460   2.7928460   2.7928460   0.0000000   0.0000000   0.0000000   0.0000000   0.0000000
 AtZNuc=   1.0000000   1.0000000   1.0000000   1.0000000   1.0000000   8.0000000   8.0000000   8.0000000  16.0000000  16.0000000

  Atom        21          22          23          24          25          26          27          28          29          30
 IAtWgt=          32          16          16          16          16          16          16          12          12          12
 AtmWgt=  31.9720718  15.9949146  15.9949146  15.9949146  15.9949146  15.9949146  15.9949146  12.0000000  12.0000000  12.0000000
 NucSpn=           0           0           0           0           0           0           0           0           0           0
 AtZEff=  -0.0000000  -0.0000000  -0.0000000  -0.0000000  -0.0000000  -0.0000000  -0.0000000  -0.0000000  -0.0000000  -0.0000000
 NQMom=    0.0000000   0.0000000   0.0000000   0.0000000   0.0000000   0.0000000   0.0000000   0.0000000   0.0000000   0.0000000
 NMagM=    0.0000000   0.0000000   0.0000000   0.0000000   0.0000000   0.0000000   0.0000000   0.0000000   0.0000000   0.0000000
 AtZNuc=  16.0000000   8.0000000   8.0000000   8.0000000   8.0000000   8.0000000   8.0000000   6.0000000   6.0000000   6.0000000

  Atom        31          32          33          34          35          36          37          38          39          40
 IAtWgt=          19          19          19          19          19          19          19          19          19          12
 AtmWgt=  18.9984032  18.9984032  18.9984032  18.9984032  18.9984032  18.9984032  18.9984032  18.9984032  18.9984032  12.0000000
 NucSpn=           1           1           1           1           1           1           1           1           1           0
 AtZEff=  -0.0000000  -0.0000000  -0.0000000  -0.0000000  -0.0000000  -0.0000000  -0.0000000  -0.0000000  -0.0000000  -0.0000000
 NQMom=    0.0000000   0.0000000   0.0000000   0.0000000   0.0000000   0.0000000   0.0000000   0.0000000   0.0000000   0.0000000
 NMagM=    2.6288670   2.6288670   2.6288670   2.6288670   2.6288670   2.6288670   2.6288670   2.6288670   2.6288670   0.0000000
 AtZNuc=   9.0000000   9.0000000   9.0000000   9.0000000   9.0000000   9.0000000   9.0000000   9.0000000   9.0000000   6.0000000

  Atom        41          42          43          44          45          46          47          48          49          50
 IAtWgt=          12          12          12          12          12          12           1           1           1          14
 AtmWgt=  12.0000000  12.0000000  12.0000000  12.0000000  12.0000000  12.0000000   1.0078250   1.0078250   1.0078250  14.0030740
 NucSpn=           0           0           0           0           0           0           1           1           1           2
 AtZEff=  -0.0000000  -0.0000000  -0.0000000  -0.0000000  -0.0000000  -0.0000000  -0.0000000  -0.0000000  -0.0000000  -0.0000000
 NQMom=    0.0000000   0.0000000   0.0000000   0.0000000   0.0000000   0.0000000   0.0000000   0.0000000   0.0000000   2.0440000
 NMagM=    0.0000000   0.0000000   0.0000000   0.0000000   0.0000000   0.0000000   2.7928460   2.7928460   2.7928460   0.4037610
 AtZNuc=   6.0000000   6.0000000   6.0000000   6.0000000   6.0000000   6.0000000   1.0000000   1.0000000   1.0000000   7.0000000

  Atom        51          52          53          54          55          56          57          58          59          60
 IAtWgt=          14          14          14          12           1           1          12          12          12          12
 AtmWgt=  14.0030740  14.0030740  14.0030740  12.0000000   1.0078250   1.0078250  12.0000000  12.0000000  12.0000000  12.0000000
 NucSpn=           2           2           2           0           1           1           0           0           0           0
 AtZEff=  -0.0000000  -0.0000000  -0.0000000  -0.0000000  -0.0000000  -0.0000000  -0.0000000  -0.0000000  -0.0000000  -0.0000000
 NQMom=    2.0440000   2.0440000   2.0440000   0.0000000   0.0000000   0.0000000   0.0000000   0.0000000   0.0000000   0.0000000
 NMagM=    0.4037610   0.4037610   0.4037610   0.0000000   2.7928460   2.7928460   0.0000000   0.0000000   0.0000000   0.0000000
 AtZNuc=   7.0000000   7.0000000   7.0000000   6.0000000   1.0000000   1.0000000   6.0000000   6.0000000   6.0000000   6.0000000

  Atom        61          62          63          64          65          66          67          68          69
 IAtWgt=           1          12           1          12           1           1           1         175          16
 AtmWgt=   1.0078250  12.0000000   1.0078250  12.0000000   1.0078250   1.0078250   1.0078250 174.9409000  15.9949146
 NucSpn=           1           0           1           0           1           1           1           7           0
 AtZEff=  -0.0000000  -0.0000000  -0.0000000  -0.0000000  -0.0000000  -0.0000000  -0.0000000  -0.0000000  -0.0000000
 NQMom=    0.0000000   0.0000000   0.0000000   0.0000000   0.0000000   0.0000000   0.0000000 349.0000000   0.0000000
 NMagM=    2.7928460   0.0000000   2.7928460   0.0000000   2.7928460   2.7928460   2.7928460   2.2327000   0.0000000
 AtZNuc=   1.0000000   6.0000000   1.0000000   6.0000000   1.0000000   1.0000000   1.0000000  71.0000000   8.0000000
 Leave Link  101 at Fri May  2 09:22:39 2025, MaxMem= 12348030976 cpu:               6.0 elap:               0.3
 (Enter /sysapps/ubuntu-applications/gaussian-new/avx/g16/l123.exe)
 IRC-IRC-IRC-IRC-IRC-IRC-IRC-IRC-IRC-IRC-IRC-IRC-IRC-IRC-IRC-IRC-IRC-IRC
 ------------------------------------------------------------------------
 INPUT DATA FOR L123
 ------------------------------------------------------------------------
 GENERAL PARAMETERS:
 Follow reaction path in both directions.
 Maximum points per path      = 100
 Step size                    =   0.100 bohr
 Integration scheme           = HPC                                 
    Redo corrector integration= Never                               
    DWI Weight Power          =  2
    DWI will use Hessian update vectors when possible.
 Initial Hessian              = CalcFC
 Hessian evaluation           = All updating
 Hessian updating method      = Bofill                              
 ------------------------------------------------------------------------
 IRC-IRC-IRC-IRC-IRC-IRC-IRC-IRC-IRC-IRC-IRC-IRC-IRC-IRC-IRC-IRC-IRC-IRC
 Leave Link  123 at Fri May  2 09:22:39 2025, MaxMem= 12348030976 cpu:               0.5 elap:               0.0
 (Enter /sysapps/ubuntu-applications/gaussian-new/avx/g16/l202.exe)
 Symmetry turned off by external request.
 Stoichiometry    C22H16F9LuN4O14S3
 Framework group  C1[X(C22H16F9LuN4O14S3)]
 Deg. of freedom   201
 Full point group                 C1      NOp   1
                          Input orientation:                          
 ---------------------------------------------------------------------
 Center     Atomic      Atomic             Coordinates (Angstroms)
 Number     Number       Type             X           Y           Z
 ---------------------------------------------------------------------
      1          6           0       -2.007362   -0.057899    1.040661
      2          6           0       -1.610626   -0.075325   -0.355479
      3          6           0       -0.976168   -0.101011    2.061047
      4          8           0        0.220131   -0.400369    1.850649
      5          8           0       -0.439088   -0.153634   -0.764759
      6          8           0       -2.609569   -0.190342   -1.190926
      7          8           0       -1.421083    0.058731    3.280016
      8          6           0       -2.350411   -0.346248   -2.589409
      9          6           0       -0.476251   -0.042559    4.351859
     10          1           0       -3.296843   -0.671574   -3.036478
     11          1           0       -1.563296   -1.096905   -2.748208
     12          1           0       -2.039974    0.613401   -3.023081
     13          1           0       -1.044379    0.123318    5.272363
     14          1           0        0.303309    0.723130    4.239870
     15          1           0       -0.015349   -1.039077    4.360402
     16          8           0        3.324308   -0.866777    1.281533
     17          8           0        2.211673   -0.657315   -1.863770
     18          8           0        0.328050    2.145957    0.822963
     19         16           0        0.923599    3.014467   -0.233204
     20         16           0        4.004303    0.377099    1.762744
     21         16           0        1.842035   -2.096347   -1.662751
     22          8           0        1.711555    2.093102   -1.112535
     23          8           0        1.546371    4.248575    0.169713
     24          8           0        3.034941    1.476932    1.469892
     25          8           0        4.646537    0.352116    3.047460
     26          8           0        1.416745   -2.214403   -0.241958
     27          8           0        1.008367   -2.711907   -2.668105
     28          6           0        3.461478   -2.972097   -1.744907
     29          6           0        5.297874    0.619446    0.477734
     30          6           0       -0.521541    3.525860   -1.257135
     31          9           0        3.320327   -4.181993   -1.235757
     32          9           0        4.367828   -2.303253   -1.057511
     33          9           0        3.839724   -3.062335   -3.005857
     34          9           0        4.676240    0.693865   -0.694373
     35          9           0        6.124412   -0.405916    0.473233
     36          9           0        5.962637    1.733675    0.699174
     37          9           0       -1.130568    2.461742   -1.755745
     38          9           0       -0.110238    4.298036   -2.242618
     39          9           0       -1.370653    4.191314   -0.493583
     40          6           0       -4.508930    0.300100    1.116680
     41          6           0       -4.810065   -1.203331    1.412938
     42          6           0       -6.202490   -1.603114    1.135364
     43          6           0       -4.601693   -1.384899    2.870896
     44          6           0       -1.654699   -2.901837    0.355121
     45          6           0       -3.446976   -3.185121   -1.232649
     46          6           0       -2.077187   -3.389501   -0.842354
     47          1           0       -0.638012   -3.046649    0.723577
     48          1           0       -3.833987   -3.582089   -2.173378
     49          1           0       -1.406877   -3.954571   -1.491887
     50          7           0       -7.312450   -1.893988    0.993215
     51          7           0       -4.450760   -1.500774    4.011385
     52          7           0       -3.859876   -2.067361    0.685297
     53          7           0       -4.293459   -2.534232   -0.493807
     54          6           0       -2.569466   -2.122483    1.140334
     55          1           0       -2.450767   -2.064019    2.225551
     56          1           0       -5.085110    0.847270    1.880077
     57          6           0       -4.868156    0.904865   -0.232396
     58          6           0       -4.319921    2.175887   -0.469255
     59          6           0       -5.655960    0.309312   -1.220471
     60          6           0       -4.529973    2.826362   -1.682114
     61          1           0       -3.690415    2.639321    0.294367
     62          6           0       -5.877509    0.971878   -2.433367
     63          1           0       -6.086120   -0.682720   -1.088577
     64          6           0       -5.310788    2.223046   -2.673634
     65          1           0       -4.076135    3.805343   -1.854063
     66          1           0       -6.490803    0.491246   -3.198864
     67          1           0       -5.477400    2.728574   -3.627401
     68         71           0        1.550044    0.166686    0.181683
     69          8           0       -3.164006    0.560346    1.488011
 ---------------------------------------------------------------------
 Rotational constants (GHZ):           0.0785580           0.0380922           0.0345130
 Leave Link  202 at Fri May  2 09:22:39 2025, MaxMem= 12348030976 cpu:               0.2 elap:               0.0
 (Enter /sysapps/ubuntu-applications/gaussian-new/avx/g16/l301.exe)
 General basis read from cards:  (5D, 7F)
 Centers:      10     11     12     13     14     15     47     48     49     55
 Centers:      56     61     63     65     66     67
 S 3 1.00
     Exponent=  1.3010701000D+01 Coefficients=  1.9682158000D-02
     Exponent=  1.9622572000D+00 Coefficients=  1.3796524000D-01
     Exponent=  4.4453796000D-01 Coefficients=  4.7831935000D-01
 S 1 1.00
     Exponent=  1.2194962000D-01 Coefficients=  1.0000000000D+00
 P 1 1.00
     Exponent=  8.0000000000D-01 Coefficients=  1.0000000000D+00
 ****
 Centers:       1      2      3      8      9     28     29     30     40     41
 Centers:      42     43     44     45     46     54     57     58     59     60
 Centers:      62     64
 S 5 1.00
     Exponent=  1.2384016938D+03 Coefficients=  5.4568832082D-03
     Exponent=  1.8629004992D+02 Coefficients=  4.0638409211D-02
     Exponent=  4.2251176346D+01 Coefficients=  1.8025593888D-01
     Exponent=  1.1676557932D+01 Coefficients=  4.6315121755D-01
     Exponent=  3.5930506482D+00 Coefficients=  4.4087173314D-01
 S 1 1.00
     Exponent=  4.0245147363D-01 Coefficients=  1.0000000000D+00
 S 1 1.00
     Exponent=  1.3090182668D-01 Coefficients=  1.0000000000D+00
 P 3 1.00
     Exponent=  9.4680970621D+00 Coefficients=  3.8387871728D-02
     Exponent=  2.0103545142D+00 Coefficients=  2.1117025112D-01
     Exponent=  5.4771004707D-01 Coefficients=  5.1328172114D-01
 P 1 1.00
     Exponent=  1.5268613795D-01 Coefficients=  1.0000000000D+00
 D 1 1.00
     Exponent=  8.0000000000D-01 Coefficients=  1.0000000000D+00
 ****
 Centers:      50     51     52     53
 S 5 1.00
     Exponent=  1.7128415853D+03 Coefficients= -5.3934125305D-03
     Exponent=  2.5764812677D+02 Coefficients= -4.0221581118D-02
     Exponent=  5.8458245853D+01 Coefficients= -1.7931144990D-01
     Exponent=  1.6198367905D+01 Coefficients= -4.6376317823D-01
     Exponent=  5.0052600809D+00 Coefficients= -4.4171422662D-01
 S 1 1.00
     Exponent=  5.8731856571D-01 Coefficients=  1.0000000000D+00
 S 1 1.00
     Exponent=  1.8764592253D-01 Coefficients=  1.0000000000D+00
 P 3 1.00
     Exponent=  1.3571470233D+01 Coefficients= -4.0072398852D-02
     Exponent=  2.9257372874D+00 Coefficients= -2.1807045028D-01
     Exponent=  7.9927750754D-01 Coefficients= -5.1294466049D-01
 P 1 1.00
     Exponent=  2.1954348034D-01 Coefficients=  1.0000000000D+00
 D 1 1.00
     Exponent=  1.0000000000D+00 Coefficients=  1.0000000000D+00
 ****
 Centers:       4      5      6      7     16     17     18     22     23     24
 Centers:      25     26     27     69
 S 5 1.00
     Exponent=  2.2661767785D+03 Coefficients= -5.3431809926D-03
     Exponent=  3.4087010191D+02 Coefficients= -3.9890039230D-02
     Exponent=  7.7363135167D+01 Coefficients= -1.7853911985D-01
     Exponent=  2.1479644940D+01 Coefficients= -4.6427684959D-01
     Exponent=  6.6589433124D+00 Coefficients= -4.4309745172D-01
 S 1 1.00
     Exponent=  8.0975975668D-01 Coefficients=  1.0000000000D+00
 S 1 1.00
     Exponent=  2.5530772234D-01 Coefficients=  1.0000000000D+00
 P 3 1.00
     Exponent=  1.7721504317D+01 Coefficients=  4.3394573193D-02
     Exponent=  3.8635505440D+00 Coefficients=  2.3094120765D-01
     Exponent=  1.0480920883D+00 Coefficients=  5.1375311064D-01
 P 1 1.00
     Exponent=  2.7641544411D-01 Coefficients=  1.0000000000D+00
 D 1 1.00
     Exponent=  1.2000000000D+00 Coefficients=  1.0000000000D+00
 ****
 Centers:      31     32     33     34     35     36     37     38     39
 S 5 1.00
     Exponent=  2.8948325990D+03 Coefficients= -5.3408255515D-03
     Exponent=  4.3541939120D+02 Coefficients= -3.9904258866D-02
     Exponent=  9.8843328866D+01 Coefficients= -1.7912768038D-01
     Exponent=  2.7485198001D+01 Coefficients= -4.6758090825D-01
     Exponent=  8.5405498171D+00 Coefficients= -4.4653131020D-01
 S 1 1.00
     Exponent=  1.0654578038D+00 Coefficients=  1.0000000000D+00
 S 1 1.00
     Exponent=  3.3247346748D-01 Coefficients=  1.0000000000D+00
 P 3 1.00
     Exponent=  2.2696633924D+01 Coefficients= -4.5212874436D-02
     Exponent=  4.9872339257D+00 Coefficients= -2.3754317067D-01
     Exponent=  1.3491613954D+00 Coefficients= -5.1287353587D-01
 P 1 1.00
     Exponent=  3.4829881977D-01 Coefficients=  1.0000000000D+00
 D 1 1.00
     Exponent=  1.4000000000D+00 Coefficients=  1.0000000000D+00
 ****
 Centers:      19     20     21
 S 5 1.00
     Exponent=  9.1849303010D+03 Coefficients= -2.2294387756D-03
     Exponent=  1.3815105503D+03 Coefficients= -1.6683029937D-02
     Exponent=  3.1387147580D+02 Coefficients= -7.5262436116D-02
     Exponent=  8.8053870623D+01 Coefficients= -1.9376827038D-01
     Exponent=  2.7039914905D+01 Coefficients= -1.7718020803D-01
 S 3 1.00
     Exponent=  4.5648731303D+01 Coefficients= -1.0736062573D-01
     Exponent=  4.9664522326D+00 Coefficients=  6.5066293018D-01
     Exponent=  2.0116242047D+00 Coefficients=  5.9712155354D-01
 S 1 1.00
     Exponent=  3.5661077013D-01 Coefficients=  1.0000000000D+00
 S 1 1.00
     Exponent=  1.3507221477D-01 Coefficients=  1.0000000000D+00
 P 5 1.00
     Exponent=  2.6198233439D+02 Coefficients= -9.2729929822D-03
     Exponent=  6.1306894736D+01 Coefficients= -6.6547669241D-02
     Exponent=  1.9103729887D+01 Coefficients= -2.4828595903D-01
     Exponent=  6.6567720378D+00 Coefficients= -4.8703847402D-01
     Exponent=  2.3959635161D+00 Coefficients= -3.9337850312D-01
 P 1 1.00
     Exponent=  6.1776161679D-01 Coefficients=  1.0000000000D+00
 P 1 1.00
     Exponent=  1.6993376871D-01 Coefficients=  1.0000000000D+00
 D 1 1.00
     Exponent=  5.5000000000D-01 Coefficients=  1.0000000000D+00
 ****
 Centers:      68
 S 5 1.00
     Exponent=  9.5169767000D+04 Coefficients=  2.2000000000D-05
     Exponent=  1.5488403000D+04 Coefficients=  1.4500000000D-04
     Exponent=  3.7762335000D+03 Coefficients=  6.5100000000D-04
     Exponent=  1.0790501000D+03 Coefficients=  2.0380000000D-03
     Exponent=  2.6895380000D+02 Coefficients=  5.1270000000D-03
 S 1 1.00
     Exponent=  6.3467900000D+01 Coefficients=  1.0000000000D+00
 S 1 1.00
     Exponent=  4.5133200000D+01 Coefficients=  1.0000000000D+00
 S 1 1.00
     Exponent=  2.1456800000D+01 Coefficients=  1.0000000000D+00
 S 1 1.00
     Exponent=  5.3483000000D+00 Coefficients=  1.0000000000D+00
 S 1 1.00
     Exponent=  2.6778000000D+00 Coefficients=  1.0000000000D+00
 S 1 1.00
     Exponent=  1.0287000000D+00 Coefficients=  1.0000000000D+00
 S 1 1.00
     Exponent=  4.4080000000D-01 Coefficients=  1.0000000000D+00
 S 1 1.00
     Exponent=  7.9100000000D-02 Coefficients=  1.0000000000D+00
 S 1 1.00
     Exponent=  3.1300000000D-02 Coefficients=  1.0000000000D+00
 P 3 1.00
     Exponent=  1.2333733920D+01 Coefficients= -1.5313031066D-01
     Exponent=  1.1080331415D+01 Coefficients= -2.0300664852D-01
     Exponent=  2.0341747228D+00 Coefficients= -1.9458361263D-01
 P 6 1.00
     Exponent=  1.5005317313D+03 Coefficients= -1.0192569555D-03
     Exponent=  3.8239748937D+02 Coefficients= -5.9476212135D-03
     Exponent=  1.3299969628D+02 Coefficients= -1.6265160929D-02
     Exponent=  4.6110032419D+01 Coefficients= -3.5623845839D-02
     Exponent=  1.5583529011D+01 Coefficients=  2.3709171074D-01
     Exponent=  5.7856677022D+00 Coefficients= -3.0670977844D-01
 P 1 1.00
     Exponent=  3.7823361008D+00 Coefficients=  1.0000000000D+00
 P 1 1.00
     Exponent=  1.3682592248D+00 Coefficients=  1.0000000000D+00
 P 1 1.00
     Exponent=  5.7288205601D-01 Coefficients=  1.0000000000D+00
 P 1 1.00
     Exponent=  2.2793165135D-01 Coefficients=  1.0000000000D+00
 P 1 1.00
     Exponent=  8.1403917986D-02 Coefficients=  1.0000000000D+00
 P 1 1.00
     Exponent=  2.9091071778D-02 Coefficients=  1.0000000000D+00
 D 6 1.00
     Exponent=  4.8452750000D+02 Coefficients=  2.2860000000D-03
     Exponent=  1.4666550000D+02 Coefficients=  1.8629000000D-02
     Exponent=  5.6377900000D+01 Coefficients=  7.4088000000D-02
     Exponent=  2.3671100000D+01 Coefficients=  1.6155400000D-01
     Exponent=  9.4401000000D+00 Coefficients=  3.0809100000D-01
     Exponent=  4.3712000000D+00 Coefficients=  4.4833400000D-01
 D 1 1.00
     Exponent=  1.9580000000D+00 Coefficients=  1.0000000000D+00
 D 1 1.00
     Exponent=  7.2720000000D-01 Coefficients=  1.0000000000D+00
 D 1 1.00
     Exponent=  2.4600000000D-01 Coefficients=  1.0000000000D+00
 D 1 1.00
     Exponent=  7.4400000000D-02 Coefficients=  1.0000000000D+00
 F 5 1.00
     Exponent=  1.7515590000D+02 Coefficients=  4.1020000000D-03
     Exponent=  6.2890900000D+01 Coefficients=  3.9086000000D-02
     Exponent=  2.8362400000D+01 Coefficients=  1.4704400000D-01
     Exponent=  1.3247800000D+01 Coefficients=  2.7109200000D-01
     Exponent=  6.1440000000D+00 Coefficients=  3.4566500000D-01
 F 1 1.00
     Exponent=  2.7623000000D+00 Coefficients=  1.0000000000D+00
 F 1 1.00
     Exponent=  1.1574000000D+00 Coefficients=  1.0000000000D+00
 F 1 1.00
     Exponent=  4.2440000000D-01 Coefficients=  1.0000000000D+00
 G 1 1.00
     Exponent=  7.0090000000D-01 Coefficients=  1.0000000000D+00
 ****
 ======================================================================================================
                                       Pseudopotential Parameters
 ======================================================================================================
  Center     Atomic      Valence      Angular      Power
  Number     Number     Electrons     Momentum     of R      Exponent        Coefficient   SO-Coeffient
 ======================================================================================================
    1          6
                                   No pseudopotential on this center.
    2          6
                                   No pseudopotential on this center.
    3          6
                                   No pseudopotential on this center.
    4          8
                                   No pseudopotential on this center.
    5          8
                                   No pseudopotential on this center.
    6          8
                                   No pseudopotential on this center.
    7          8
                                   No pseudopotential on this center.
    8          6
                                   No pseudopotential on this center.
    9          6
                                   No pseudopotential on this center.
   10          1
                                   No pseudopotential on this center.
   11          1
                                   No pseudopotential on this center.
   12          1
                                   No pseudopotential on this center.
   13          1
                                   No pseudopotential on this center.
   14          1
                                   No pseudopotential on this center.
   15          1
                                   No pseudopotential on this center.
   16          8
                                   No pseudopotential on this center.
   17          8
                                   No pseudopotential on this center.
   18          8
                                   No pseudopotential on this center.
   19         16
                                   No pseudopotential on this center.
   20         16
                                   No pseudopotential on this center.
   21         16
                                   No pseudopotential on this center.
   22          8
                                   No pseudopotential on this center.
   23          8
                                   No pseudopotential on this center.
   24          8
                                   No pseudopotential on this center.
   25          8
                                   No pseudopotential on this center.
   26          8
                                   No pseudopotential on this center.
   27          8
                                   No pseudopotential on this center.
   28          6
                                   No pseudopotential on this center.
   29          6
                                   No pseudopotential on this center.
   30          6
                                   No pseudopotential on this center.
   31          9
                                   No pseudopotential on this center.
   32          9
                                   No pseudopotential on this center.
   33          9
                                   No pseudopotential on this center.
   34          9
                                   No pseudopotential on this center.
   35          9
                                   No pseudopotential on this center.
   36          9
                                   No pseudopotential on this center.
   37          9
                                   No pseudopotential on this center.
   38          9
                                   No pseudopotential on this center.
   39          9
                                   No pseudopotential on this center.
   40          6
                                   No pseudopotential on this center.
   41          6
                                   No pseudopotential on this center.
   42          6
                                   No pseudopotential on this center.
   43          6
                                   No pseudopotential on this center.
   44          6
                                   No pseudopotential on this center.
   45          6
                                   No pseudopotential on this center.
   46          6
                                   No pseudopotential on this center.
   47          1
                                   No pseudopotential on this center.
   48          1
                                   No pseudopotential on this center.
   49          1
                                   No pseudopotential on this center.
   50          7
                                   No pseudopotential on this center.
   51          7
                                   No pseudopotential on this center.
   52          7
                                   No pseudopotential on this center.
   53          7
                                   No pseudopotential on this center.
   54          6
                                   No pseudopotential on this center.
   55          1
                                   No pseudopotential on this center.
   56          1
                                   No pseudopotential on this center.
   57          6
                                   No pseudopotential on this center.
   58          6
                                   No pseudopotential on this center.
   59          6
                                   No pseudopotential on this center.
   60          6
                                   No pseudopotential on this center.
   61          1
                                   No pseudopotential on this center.
   62          6
                                   No pseudopotential on this center.
   63          1
                                   No pseudopotential on this center.
   64          6
                                   No pseudopotential on this center.
   65          1
                                   No pseudopotential on this center.
   66          1
                                   No pseudopotential on this center.
   67          1
                                   No pseudopotential on this center.
   68         71           43
                                      H and up 
                                                     2        1.0000000        0.00000000    0.00000000
                                      S - H
                                                     2       35.1620970      989.99558400    0.00000000
                                      P - H
                                                     2       19.4644020      278.86565200    0.00000000
                                      D - H
                                                     2       10.0068650       71.00917800    0.00000000
                                      F - H
                                                     2       23.5179320      -47.40589000    0.00000000
                                      G - H
                                                     2       29.4122380      -35.55714600    0.00000000
   69          8
                                   No pseudopotential on this center.
 ======================================================================================================
 Ernie: Thresh=  0.10000D-02 Tol=  0.10000D-05 Strict=F.
   916 basis functions,  1662 primitive gaussians,   991 cartesian basis functions
   230 alpha electrons      230 beta electrons
       nuclear repulsion energy     11974.2127478538 Hartrees.
 IExCor= 7252 DFT=T Ex+Corr=MN15 ExCW=0 ScaHFX=  0.440000
 ScaDFX=  1.000000  1.000000  1.000000  1.000000 ScalE2=  1.000000  1.000000
 IRadAn=      5 IRanWt=     -1 IRanGd=            0 ICorTp=0 IEmpDi=  4
 NAtoms=   69 NActive=   69 NUniq=   69 SFac= 1.00D+00 NAtFMM=   60 NAOKFM=T Big=T
 Integral buffers will be    131072 words long.
 Raffenetti 2 integral format.
 Two-electron integral symmetry is turned off.
 Force inversion solution in PCM.
 ------------------------------------------------------------------------------
 Polarizable Continuum Model (PCM)
 =================================
 Model                : PCM.
 Atomic radii         : SMD-Coulomb.
 Polarization charges : Total charges.
 Charge compensation  : None.
 Solution method      : Matrix inversion.
 Cavity type          : VdW (van der Waals Surface) (Alpha=1.000).
 Cavity algorithm     : GePol (No added spheres)
                        Default sphere list used, NSphG=   69.
                        Lebedev-Laikov grids with approx.  5.0 points / Ang**2.
                        Smoothing algorithm: York/Karplus (Gamma=1.0000).
                        Polarization charges: spherical gaussians, with
                                              point-specific exponents (IZeta= 3).
                        Self-potential: point-specific (ISelfS= 7).
                        Self-field    : sphere-specific E.n sum rule (ISelfD= 2).
 1st derivatives      : Analytical E(r).r(x)/FMM algorithm (CHGder, D1EAlg=3).
                        Cavity 1st derivative terms included.
 2nd derivatives      : Analytical E(r).r(xy)/FMM algorithm (CHGder, D2EAlg=3).
                        Cavity 2nd derivative terms included.
 Solvent              : DiChloroEthane, Eps=  10.125000 Eps(inf)=   2.087447
 ------------------------------------------------------------------------------
 GePol: Number of generator spheres                  =      69
 GePol: Total number of spheres                      =      69
 GePol: Number of exposed spheres                    =      68 ( 98.55%)
 GePol: Number of points                             =    4805
 GePol: Average weight of points                     =       0.13
 GePol: Minimum weight of points                     =   0.12D-11
 GePol: Maximum weight of points                     =    0.21501
 GePol: Number of points with low weight             =     327
 GePol: Fraction of low-weight points (<1% of avg)   =       6.81%
 GePol: Cavity surface area                          =    614.628 Ang**2
 GePol: Cavity volume                                =    764.901 Ang**3
 ------------------------------------------------------------------------------
 Atomic radii for non-electrostatic terms: SMD-CDS.
 ------------------------------------------------------------------------------
 PCM non-electrostatic energy =         0.0062436298 Hartrees.
 Nuclear repulsion after PCM non-electrostatic terms =    11974.2189914836 Hartrees.
 Leave Link  301 at Fri May  2 09:22:40 2025, MaxMem= 12348030976 cpu:               9.2 elap:               0.4
 (Enter /sysapps/ubuntu-applications/gaussian-new/avx/g16/l302.exe)
 NPDir=0 NMtPBC=     1 NCelOv=     1 NCel=       1 NClECP=     1 NCelD=      1
         NCelK=      1 NCelE2=     1 NClLst=     1 CellRange=     0.0.
 One-electron integrals computed using PRISM.
   1 Symmetry operations used in ECPInt.
 ECPInt:  NShTT=   77815 NPrTT=  297642 LenC2=   61419 LenP2D=  143534.
 LDataN:  DoStor=T MaxTD1= 9 Len=  602
 NBasis=   916 RedAO= T EigKep=  2.09D-04  NBF=   916
 NBsUse=   916 1.00D-06 EigRej= -1.00D+00 NBFU=   916
 Precomputing XC quadrature grid using
 IXCGrd= 4 IRadAn=           5 IRanWt=          -1 IRanGd=           0 AccXCQ= 0.00D+00.
 Defaulting to unpruned grid for atomic number  71.
 Generated NRdTot=       0 NPtTot=           0 NUsed=           0 NTot=          32
 NSgBfM=   948   948   948   948   948 MxSgAt=    69 MxSgA2=    69.
 Leave Link  302 at Fri May  2 09:22:42 2025, MaxMem= 12348030976 cpu:              59.9 elap:               2.5
 (Enter /sysapps/ubuntu-applications/gaussian-new/avx/g16/l303.exe)
 DipDrv:  MaxL=1.
 Leave Link  303 at Fri May  2 09:22:43 2025, MaxMem= 12348030976 cpu:               5.0 elap:               0.2
 (Enter /sysapps/ubuntu-applications/gaussian-new/avx/g16/l401.exe)
 ExpMin= 2.91D-02 ExpMax= 9.52D+04 ExpMxC= 1.55D+04 IAcc=3 IRadAn=         5 AccDes= 0.00D+00
 Harris functional with IExCor= 1009 and IRadAn=       5 diagonalized for initial guess.
 HarFok:  IExCor= 1009 AccDes= 0.00D+00 IRadAn=         5 IDoV= 1 UseB2=F ITyADJ=14
 ICtDFT=  3500011 ScaDFX=  1.000000  1.000000  1.000000  1.000000
 Defaulting to unpruned grid for atomic number  71.
 FoFCou: FMM=F IPFlag=           0 FMFlag=      100000 FMFlg1=        2001
         NFxFlg=           0 DoJE=T BraDBF=F KetDBF=T FulRan=T
         wScrn=  0.000000 ICntrl=       500 IOpCl=  0 I1Cent=   200000004 NGrid=           0
         NMat0=    1 NMatS0=      1 NMatT0=    0 NMatD0=    1 NMtDS0=    0 NMtDT0=    0
 Symmetry not used in FoFCou.
 Harris En= -5446.89918469070    
 JPrj=0 DoOrth=F DoCkMO=F.
 Initial guess <Sx>= 0.0000 <Sy>= 0.0000 <Sz>= 0.0000 <S**2>=-0.0000 S=-0.0000
 Leave Link  401 at Fri May  2 09:22:48 2025, MaxMem= 12348030976 cpu:             130.1 elap:               5.4
 (Enter /sysapps/ubuntu-applications/gaussian-new/avx/g16/l502.exe)
 Two-electron integral symmetry not used.
 UHF open shell SCF:
 Using DIIS extrapolation, IDIIS=  1040.
 NGot= 12348030976 LenX= 12346034798 LenY= 12345051726
 Requested convergence on RMS density matrix=1.00D-08 within 500 cycles.
 Requested convergence on MAX density matrix=1.00D-06.
 Requested convergence on             energy=1.00D-06.
 No special actions if energy rises.
 Fock matrices will be formed incrementally for  20 cycles.

 Cycle   1  Pass 1  IDiag  1:
 FoFJK:  IHMeth= 1 ICntrl=       0 DoSepK=F KAlg= 0 I1Cent=           0 FoldK=F
 IRaf= 890000000 NMat=       1 IRICut=       1 DoRegI=T DoRafI=F ISym2E= 0 IDoP0=0 IntGTp=1.
 FoFCou: FMM=T IPFlag=           0 FMFlag=      100000 FMFlg1=        2001
         NFxFlg=           0 DoJE=F BraDBF=F KetDBF=F FulRan=T
         wScrn=  0.000000 ICntrl=         0 IOpCl=  1 I1Cent=           0 NGrid=           0
         NMat0=    1 NMatS0=      1 NMatT0=    0 NMatD0=    1 NMtDS0=    0 NMtDT0=    0
 Symmetry not used in FoFCou.
 FMM levels:  10  Number of levels for PrismC:   9
 Defaulting to unpruned grid for atomic number  71.
 Defaulting to unpruned grid for atomic number  71.
 Defaulting to unpruned grid for atomic number  71.
 Defaulting to unpruned grid for atomic number  71.
 Defaulting to unpruned grid for atomic number  71.
 Defaulting to unpruned grid for atomic number  71.
 Defaulting to unpruned grid for atomic number  71.
 Defaulting to unpruned grid for atomic number  71.
 Defaulting to unpruned grid for atomic number  71.
 Defaulting to unpruned grid for atomic number  71.
 Defaulting to unpruned grid for atomic number  71.
 Defaulting to unpruned grid for atomic number  71.
 Defaulting to unpruned grid for atomic number  71.
 Defaulting to unpruned grid for atomic number  71.
 Defaulting to unpruned grid for atomic number  71.
 Defaulting to unpruned grid for atomic number  71.
 Defaulting to unpruned grid for atomic number  71.
 Defaulting to unpruned grid for atomic number  71.
 Defaulting to unpruned grid for atomic number  71.
 Defaulting to unpruned grid for atomic number  71.
 Defaulting to unpruned grid for atomic number  71.
 Defaulting to unpruned grid for atomic number  71.
 Defaulting to unpruned grid for atomic number  71.
 Defaulting to unpruned grid for atomic number  71.
 Inv3:  Mode=1 IEnd=    69264075.
 Iteration    1 A*A^-1 deviation from unit magnitude is 1.64D-14 for   4790.
 Iteration    1 A*A^-1 deviation from orthogonality  is 6.69D-15 for   4782   4177.
 Iteration    1 A^-1*A deviation from unit magnitude is 1.64D-14 for   4790.
 Iteration    1 A^-1*A deviation from orthogonality  is 1.95D-12 for   2205   2150.
 E= -5441.21811905381    
 DIIS: error= 2.57D-01 at cycle   1 NSaved=   1.
 NSaved= 1 IEnMin= 1 EnMin= -5441.21811905381     IErMin= 1 ErrMin= 2.57D-01
 ErrMax= 2.57D-01  0.00D+00 EMaxC= 1.00D-01 BMatC= 1.56D+02 BMatP= 1.56D+02
 IDIUse=3 WtCom= 0.00D+00 WtEn= 1.00D+00
 Coeff-Com:  0.100D+01
 Coeff-En:   0.100D+01
 Coeff:      0.100D+01
 Gap=     0.202 Goal=   None    Shift=    0.000
 Gap=     0.202 Goal=   None    Shift=    0.000
 GapD=    0.202 DampG=1.000 DampE=0.125 DampFc=0.1250 IDamp=-1.
 Damping current iteration by 1.25D-01
 RMSDP=1.27D-02 MaxDP=1.85D+00              OVMax= 9.86D-01

 Cycle   2  Pass 1  IDiag  1:
 RMSU=  1.58D-03    CP:  9.95D-01
 E= -5441.93379626465     Delta-E=       -0.715677210845 Rises=F Damp=T
 DIIS: error= 1.08D-01 at cycle   2 NSaved=   2.
 NSaved= 2 IEnMin= 2 EnMin= -5441.93379626465     IErMin= 2 ErrMin= 1.08D-01
 ErrMax= 1.08D-01  0.00D+00 EMaxC= 1.00D-01 BMatC= 3.24D+01 BMatP= 1.56D+02
 IDIUse=3 WtCom= 0.00D+00 WtEn= 1.00D+00
 Coeff-Com: -0.620D+00 0.162D+01
 Coeff-En:   0.375D+00 0.625D+00
 Coeff:      0.375D+00 0.625D+00
 Gap=    -0.009 Goal=   None    Shift=    0.000
 Gap=    -0.009 Goal=   None    Shift=    0.000
 RMSDP=3.32D-03 MaxDP=6.31D-01 DE=-7.16D-01 OVMax= 8.48D-01

 Cycle   3  Pass 1  IDiag  1:
 RMSU=  3.29D-03    CP:  9.71D-01  8.30D-01
 E= -5439.64007731900     Delta-E=        2.293718945655 Rises=F Damp=F
 DIIS: error= 2.97D-01 at cycle   3 NSaved=   3.
 NSaved= 3 IEnMin= 2 EnMin= -5441.93379626465     IErMin= 2 ErrMin= 1.08D-01
 ErrMax= 2.97D-01  0.00D+00 EMaxC= 1.00D-01 BMatC= 1.95D+02 BMatP= 3.24D+01
 IDIUse=2 WtCom= 0.00D+00 WtEn= 1.00D+00
 EnCoef did   100 forward-backward iterations
 Coeff-En:   0.543D+00 0.180D-01 0.439D+00
 Coeff:      0.543D+00 0.180D-01 0.439D+00
 Gap=     0.469 Goal=   None    Shift=    0.000
 Gap=     0.469 Goal=   None    Shift=    0.000
 RMSDP=2.23D-03 MaxDP=3.06D-01 DE= 2.29D+00 OVMax= 1.77D-01

 Cycle   4  Pass 1  IDiag  1:
 RMSU=  1.25D-03    CP:  9.78D-01  4.70D-01  4.69D-01
 E= -5445.97669171208     Delta-E=       -6.336614393085 Rises=F Damp=F
 DIIS: error= 3.40D-02 at cycle   4 NSaved=   4.
 NSaved= 4 IEnMin= 4 EnMin= -5445.97669171208     IErMin= 4 ErrMin= 3.40D-02
 ErrMax= 3.40D-02  0.00D+00 EMaxC= 1.00D-01 BMatC= 3.55D+00 BMatP= 3.24D+01
 IDIUse=3 WtCom= 6.60D-01 WtEn= 3.40D-01
 Coeff-Com:  0.286D+00-0.168D+00 0.996D-01 0.782D+00
 Coeff-En:   0.000D+00 0.000D+00 0.000D+00 0.100D+01
 Coeff:      0.189D+00-0.111D+00 0.657D-01 0.856D+00
 Gap=     0.187 Goal=   None    Shift=    0.000
 Gap=     0.187 Goal=   None    Shift=    0.000
 RMSDP=9.22D-04 MaxDP=7.03D-02 DE=-6.34D+00 OVMax= 9.17D-02

 Cycle   5  Pass 1  IDiag  1:
 RMSU=  5.51D-04    CP:  9.83D-01  4.30D-01  5.14D-01  4.25D-01
 E= -5446.04720492899     Delta-E=       -0.070513216904 Rises=F Damp=F
 DIIS: error= 2.02D-02 at cycle   5 NSaved=   5.
 NSaved= 5 IEnMin= 5 EnMin= -5446.04720492899     IErMin= 5 ErrMin= 2.02D-02
 ErrMax= 2.02D-02  0.00D+00 EMaxC= 1.00D-01 BMatC= 1.50D+00 BMatP= 3.55D+00
 IDIUse=3 WtCom= 7.98D-01 WtEn= 2.02D-01
 Coeff-Com:  0.889D-01-0.101D+00 0.278D-02 0.555D+00 0.454D+00
 Coeff-En:   0.000D+00 0.000D+00 0.000D+00 0.413D+00 0.587D+00
 Coeff:      0.709D-01-0.804D-01 0.221D-02 0.527D+00 0.481D+00
 Gap=     0.182 Goal=   None    Shift=    0.000
 Gap=     0.182 Goal=   None    Shift=    0.000
 RMSDP=4.60D-04 MaxDP=4.93D-02 DE=-7.05D-02 OVMax= 4.26D-02

 Cycle   6  Pass 1  IDiag  1:
 RMSU=  2.30D-04    CP:  9.81D-01  4.18D-01  4.85D-01  6.26D-01  4.71D-01
 E= -5446.18299497467     Delta-E=       -0.135790045679 Rises=F Damp=F
 DIIS: error= 6.08D-03 at cycle   6 NSaved=   6.
 NSaved= 6 IEnMin= 6 EnMin= -5446.18299497467     IErMin= 6 ErrMin= 6.08D-03
 ErrMax= 6.08D-03  0.00D+00 EMaxC= 1.00D-01 BMatC= 1.21D-01 BMatP= 1.50D+00
 IDIUse=3 WtCom= 9.39D-01 WtEn= 6.08D-02
 Coeff-Com:  0.266D-01-0.547D-01-0.110D-01 0.144D+00 0.245D+00 0.651D+00
 Coeff-En:   0.000D+00 0.000D+00 0.000D+00 0.000D+00 0.271D-01 0.973D+00
 Coeff:      0.250D-01-0.514D-01-0.103D-01 0.135D+00 0.232D+00 0.670D+00
 Gap=     0.181 Goal=   None    Shift=    0.000
 Gap=     0.181 Goal=   None    Shift=    0.000
 RMSDP=1.11D-04 MaxDP=1.15D-02 DE=-1.36D-01 OVMax= 1.08D-02

 Cycle   7  Pass 1  IDiag  1:
 RMSU=  5.88D-05    CP:  9.81D-01  4.33D-01  4.95D-01  6.35D-01  5.25D-01
                    CP:  6.57D-01
 E= -5446.19013281945     Delta-E=       -0.007137844781 Rises=F Damp=F
 DIIS: error= 3.85D-03 at cycle   7 NSaved=   7.
 NSaved= 7 IEnMin= 7 EnMin= -5446.19013281945     IErMin= 7 ErrMin= 3.85D-03
 ErrMax= 3.85D-03  0.00D+00 EMaxC= 1.00D-01 BMatC= 4.12D-02 BMatP= 1.21D-01
 IDIUse=3 WtCom= 9.61D-01 WtEn= 3.85D-02
 Coeff-Com:  0.210D-01-0.435D-01-0.881D-02 0.169D-01 0.746D-01 0.318D+00
 Coeff-Com:  0.622D+00
 Coeff-En:   0.000D+00 0.000D+00 0.000D+00 0.000D+00 0.000D+00 0.000D+00
 Coeff-En:   0.100D+01
 Coeff:      0.202D-01-0.418D-01-0.847D-02 0.163D-01 0.717D-01 0.306D+00
 Coeff:      0.636D+00
 Gap=     0.181 Goal=   None    Shift=    0.000
 Gap=     0.181 Goal=   None    Shift=    0.000
 RMSDP=4.94D-05 MaxDP=4.76D-03 DE=-7.14D-03 OVMax= 7.40D-03

 Cycle   8  Pass 1  IDiag  1:
 RMSU=  3.22D-05    CP:  9.81D-01  4.24D-01  4.91D-01  6.26D-01  5.38D-01
                    CP:  7.31D-01  6.09D-01
 E= -5446.19124384504     Delta-E=       -0.001111025589 Rises=F Damp=F
 DIIS: error= 3.55D-03 at cycle   8 NSaved=   8.
 NSaved= 8 IEnMin= 8 EnMin= -5446.19124384504     IErMin= 8 ErrMin= 3.55D-03
 ErrMax= 3.55D-03  0.00D+00 EMaxC= 1.00D-01 BMatC= 3.28D-02 BMatP= 4.12D-02
 IDIUse=3 WtCom= 9.64D-01 WtEn= 3.55D-02
 Coeff-Com:  0.196D-01-0.370D-01-0.624D-02-0.334D-01-0.104D-01 0.551D-01
 Coeff-Com:  0.474D+00 0.538D+00
 Coeff-En:   0.000D+00 0.000D+00 0.000D+00 0.000D+00 0.000D+00 0.000D+00
 Coeff-En:   0.387D-02 0.996D+00
 Coeff:      0.189D-01-0.357D-01-0.602D-02-0.322D-01-0.100D-01 0.532D-01
 Coeff:      0.457D+00 0.554D+00
 Gap=     0.181 Goal=   None    Shift=    0.000
 Gap=     0.181 Goal=   None    Shift=    0.000
 RMSDP=2.22D-05 MaxDP=2.51D-03 DE=-1.11D-03 OVMax= 3.83D-03

 Cycle   9  Pass 1  IDiag  1:
 RMSU=  1.13D-05    CP:  9.81D-01  4.26D-01  4.92D-01  6.25D-01  5.34D-01
                    CP:  7.34D-01  7.65D-01  5.10D-01
 E= -5446.19176842760     Delta-E=       -0.000524582567 Rises=F Damp=F
 DIIS: error= 3.12D-03 at cycle   9 NSaved=   9.
 NSaved= 9 IEnMin= 9 EnMin= -5446.19176842760     IErMin= 9 ErrMin= 3.12D-03
 ErrMax= 3.12D-03  0.00D+00 EMaxC= 1.00D-01 BMatC= 2.48D-02 BMatP= 3.28D-02
 IDIUse=3 WtCom= 9.69D-01 WtEn= 3.12D-02
 Coeff-Com:  0.168D-01-0.282D-01-0.353D-02-0.379D-01-0.448D-01-0.148D+00
 Coeff-Com: -0.134D+00 0.148D+00 0.123D+01
 Coeff-En:   0.000D+00 0.000D+00 0.000D+00 0.000D+00 0.000D+00 0.000D+00
 Coeff-En:   0.000D+00 0.000D+00 0.100D+01
 Coeff:      0.163D-01-0.273D-01-0.342D-02-0.367D-01-0.434D-01-0.144D+00
 Coeff:     -0.130D+00 0.144D+00 0.122D+01
 Gap=     0.181 Goal=   None    Shift=    0.000
 Gap=     0.181 Goal=   None    Shift=    0.000
 RMSDP=1.62D-05 MaxDP=2.21D-03 DE=-5.25D-04 OVMax= 1.42D-03

 Cycle  10  Pass 1  IDiag  1:
 RMSU=  9.23D-06    CP:  9.81D-01  4.26D-01  4.93D-01  6.20D-01  5.37D-01
                    CP:  7.51D-01  8.38D-01  6.97D-01  4.72D-01
 E= -5446.19228284563     Delta-E=       -0.000514418027 Rises=F Damp=F
 DIIS: error= 2.53D-03 at cycle  10 NSaved=  10.
 NSaved=10 IEnMin=10 EnMin= -5446.19228284563     IErMin=10 ErrMin= 2.53D-03
 ErrMax= 2.53D-03  0.00D+00 EMaxC= 1.00D-01 BMatC= 1.62D-02 BMatP= 2.48D-02
 IDIUse=3 WtCom= 9.75D-01 WtEn= 2.53D-02
 Coeff-Com:  0.899D-02-0.120D-01-0.931D-03-0.121D-01-0.338D-01-0.208D+00
 Coeff-Com: -0.637D+00-0.597D+00 0.104D+01 0.145D+01
 Coeff-En:   0.000D+00 0.000D+00 0.000D+00 0.000D+00 0.000D+00 0.000D+00
 Coeff-En:   0.000D+00 0.000D+00 0.000D+00 0.100D+01
 Coeff:      0.876D-02-0.117D-01-0.908D-03-0.118D-01-0.330D-01-0.203D+00
 Coeff:     -0.621D+00-0.582D+00 0.102D+01 0.144D+01
 Gap=     0.181 Goal=   None    Shift=    0.000
 Gap=     0.181 Goal=   None    Shift=    0.000
 RMSDP=2.03D-05 MaxDP=4.21D-03 DE=-5.14D-04 OVMax= 1.69D-03

 Cycle  11  Pass 1  IDiag  1:
 RMSU=  1.02D-05    CP:  9.81D-01  4.24D-01  4.93D-01  6.08D-01  5.37D-01
                    CP:  7.68D-01  8.87D-01  8.42D-01  1.05D+00  1.12D+00
 E= -5446.19299220704     Delta-E=       -0.000709361409 Rises=F Damp=F
 DIIS: error= 1.09D-03 at cycle  11 NSaved=  11.
 NSaved=11 IEnMin=11 EnMin= -5446.19299220704     IErMin=11 ErrMin= 1.09D-03
 ErrMax= 1.09D-03  0.00D+00 EMaxC= 1.00D-01 BMatC= 3.09D-03 BMatP= 1.62D-02
 IDIUse=3 WtCom= 9.89D-01 WtEn= 1.09D-02
 Coeff-Com:  0.308D-02-0.347D-02-0.376D-03 0.445D-02-0.613D-02-0.799D-01
 Coeff-Com: -0.348D+00-0.465D+00 0.223D+00 0.820D+00 0.852D+00
 Coeff-En:   0.000D+00 0.000D+00 0.000D+00 0.000D+00 0.000D+00 0.000D+00
 Coeff-En:   0.000D+00 0.000D+00 0.000D+00 0.000D+00 0.100D+01
 Coeff:      0.304D-02-0.343D-02-0.371D-03 0.440D-02-0.606D-02-0.790D-01
 Coeff:     -0.344D+00-0.460D+00 0.220D+00 0.811D+00 0.854D+00
 Gap=     0.181 Goal=   None    Shift=    0.000
 Gap=     0.181 Goal=   None    Shift=    0.000
 RMSDP=1.04D-05 MaxDP=2.31D-03 DE=-7.09D-04 OVMax= 1.36D-03

 Cycle  12  Pass 1  IDiag  1:
 RMSU=  6.96D-06    CP:  9.81D-01  4.23D-01  4.94D-01  6.04D-01  5.36D-01
                    CP:  7.74D-01  9.03D-01  8.60D-01  1.20D+00  1.56D+00
                    CP:  1.13D+00
 E= -5446.19314197712     Delta-E=       -0.000149770085 Rises=F Damp=F
 DIIS: error= 3.40D-04 at cycle  12 NSaved=  12.
 NSaved=12 IEnMin=12 EnMin= -5446.19314197712     IErMin=12 ErrMin= 3.40D-04
 ErrMax= 3.40D-04  0.00D+00 EMaxC= 1.00D-01 BMatC= 3.15D-04 BMatP= 3.09D-03
 IDIUse=3 WtCom= 9.97D-01 WtEn= 3.40D-03
 Coeff-Com:  0.407D-03-0.498D-03-0.245D-03 0.488D-02 0.464D-02 0.834D-02
 Coeff-Com: -0.176D-01-0.102D+00-0.113D+00 0.165D-01 0.404D+00 0.794D+00
 Coeff-En:   0.000D+00 0.000D+00 0.000D+00 0.000D+00 0.000D+00 0.000D+00
 Coeff-En:   0.000D+00 0.000D+00 0.000D+00 0.000D+00 0.000D+00 0.100D+01
 Coeff:      0.405D-03-0.496D-03-0.244D-03 0.486D-02 0.462D-02 0.831D-02
 Coeff:     -0.176D-01-0.102D+00-0.112D+00 0.164D-01 0.403D+00 0.795D+00
 Gap=     0.181 Goal=   None    Shift=    0.000
 Gap=     0.181 Goal=   None    Shift=    0.000
 RMSDP=5.51D-06 MaxDP=8.03D-04 DE=-1.50D-04 OVMax= 1.55D-03

 Cycle  13  Pass 1  IDiag  1:
 RMSU=  3.09D-06    CP:  9.81D-01  4.23D-01  4.94D-01  6.02D-01  5.34D-01
                    CP:  7.73D-01  8.89D-01  8.47D-01  1.18D+00  1.52D+00
                    CP:  1.47D+00  1.15D+00
 E= -5446.19316087001     Delta-E=       -0.000018892883 Rises=F Damp=F
 DIIS: error= 4.53D-05 at cycle  13 NSaved=  13.
 NSaved=13 IEnMin=13 EnMin= -5446.19316087001     IErMin=13 ErrMin= 4.53D-05
 ErrMax= 4.53D-05  0.00D+00 EMaxC= 1.00D-01 BMatC= 1.00D-05 BMatP= 3.15D-04
 IDIUse=1 WtCom= 1.00D+00 WtEn= 0.00D+00
 Coeff-Com: -0.113D-03 0.494D-04-0.913D-04 0.159D-02 0.312D-02 0.159D-01
 Coeff-Com:  0.473D-01 0.188D-01-0.799D-01-0.128D+00 0.534D-01 0.417D+00
 Coeff-Com:  0.651D+00
 Coeff:     -0.113D-03 0.494D-04-0.913D-04 0.159D-02 0.312D-02 0.159D-01
 Coeff:      0.473D-01 0.188D-01-0.799D-01-0.128D+00 0.534D-01 0.417D+00
 Coeff:      0.651D+00
 Gap=     0.181 Goal=   None    Shift=    0.000
 Gap=     0.181 Goal=   None    Shift=    0.000
 RMSDP=2.32D-06 MaxDP=1.58D-04 DE=-1.89D-05 OVMax= 8.12D-04

 Cycle  14  Pass 1  IDiag  1:
 RMSU=  1.24D-06    CP:  9.81D-01  4.23D-01  4.94D-01  6.01D-01  5.33D-01
                    CP:  7.72D-01  8.84D-01  8.34D-01  1.11D+00  1.51D+00
                    CP:  1.55D+00  1.34D+00  1.00D+00
 E= -5446.19316254461     Delta-E=       -0.000001674600 Rises=F Damp=F
 DIIS: error= 1.10D-05 at cycle  14 NSaved=  14.
 NSaved=14 IEnMin=14 EnMin= -5446.19316254461     IErMin=14 ErrMin= 1.10D-05
 ErrMax= 1.10D-05  0.00D+00 EMaxC= 1.00D-01 BMatC= 8.70D-07 BMatP= 1.00D-05
 IDIUse=1 WtCom= 1.00D+00 WtEn= 0.00D+00
 Coeff-Com: -0.107D-03 0.754D-04 0.470D-05-0.196D-03 0.583D-03 0.567D-02
 Coeff-Com:  0.247D-01 0.239D-01-0.120D-01-0.587D-01-0.482D-01 0.537D-01
 Coeff-Com:  0.281D+00 0.730D+00
 Coeff:     -0.107D-03 0.754D-04 0.470D-05-0.196D-03 0.583D-03 0.567D-02
 Coeff:      0.247D-01 0.239D-01-0.120D-01-0.587D-01-0.482D-01 0.537D-01
 Coeff:      0.281D+00 0.730D+00
 Gap=     0.181 Goal=   None    Shift=    0.000
 Gap=     0.181 Goal=   None    Shift=    0.000
 RMSDP=1.13D-06 MaxDP=9.24D-05 DE=-1.67D-06 OVMax= 3.99D-04

 Cycle  15  Pass 1  IDiag  1:
 RMSU=  4.81D-07    CP:  9.81D-01  4.23D-01  4.94D-01  6.01D-01  5.33D-01
                    CP:  7.71D-01  8.79D-01  8.27D-01  1.09D+00  1.47D+00
                    CP:  1.57D+00  1.43D+00  1.16D+00  1.06D+00
 E= -5446.19316279698     Delta-E=       -0.000000252370 Rises=F Damp=F
 DIIS: error= 1.05D-05 at cycle  15 NSaved=  15.
 NSaved=15 IEnMin=15 EnMin= -5446.19316279698     IErMin=15 ErrMin= 1.05D-05
 ErrMax= 1.05D-05  0.00D+00 EMaxC= 1.00D-01 BMatC= 3.68D-07 BMatP= 8.70D-07
 IDIUse=1 WtCom= 1.00D+00 WtEn= 0.00D+00
 Coeff-Com: -0.282D-04 0.206D-04 0.223D-04-0.435D-03-0.381D-03-0.642D-03
 Coeff-Com:  0.198D-02 0.635D-02 0.125D-01-0.676D-03-0.322D-01-0.552D-01
 Coeff-Com: -0.451D-02 0.315D+00 0.758D+00
 Coeff:     -0.282D-04 0.206D-04 0.223D-04-0.435D-03-0.381D-03-0.642D-03
 Coeff:      0.198D-02 0.635D-02 0.125D-01-0.676D-03-0.322D-01-0.552D-01
 Coeff:     -0.451D-02 0.315D+00 0.758D+00
 Gap=     0.181 Goal=   None    Shift=    0.000
 Gap=     0.181 Goal=   None    Shift=    0.000
 RMSDP=5.81D-07 MaxDP=5.51D-05 DE=-2.52D-07 OVMax= 2.23D-04

 Cycle  16  Pass 1  IDiag  1:
 RMSU=  2.08D-07    CP:  9.81D-01  4.23D-01  4.94D-01  6.01D-01  5.33D-01
                    CP:  7.71D-01  8.76D-01  8.23D-01  1.07D+00  1.45D+00
                    CP:  1.58D+00  1.47D+00  1.24D+00  1.24D+00  9.81D-01
 E= -5446.19316285203     Delta-E=       -0.000000055054 Rises=F Damp=F
 DIIS: error= 2.63D-06 at cycle  16 NSaved=  16.
 NSaved=16 IEnMin=16 EnMin= -5446.19316285203     IErMin=16 ErrMin= 2.63D-06
 ErrMax= 2.63D-06  0.00D+00 EMaxC= 1.00D-01 BMatC= 4.21D-08 BMatP= 3.68D-07
 IDIUse=1 WtCom= 1.00D+00 WtEn= 0.00D+00
 Coeff-Com: -0.688D-06-0.422D-06 0.113D-04-0.203D-03-0.288D-03-0.110D-02
 Coeff-Com: -0.213D-02 0.171D-03 0.852D-02 0.748D-02-0.106D-01-0.363D-01
 Coeff-Com: -0.423D-01 0.564D-01 0.406D+00 0.615D+00
 Coeff:     -0.688D-06-0.422D-06 0.113D-04-0.203D-03-0.288D-03-0.110D-02
 Coeff:     -0.213D-02 0.171D-03 0.852D-02 0.748D-02-0.106D-01-0.363D-01
 Coeff:     -0.423D-01 0.564D-01 0.406D+00 0.615D+00
 Gap=     0.181 Goal=   None    Shift=    0.000
 Gap=     0.181 Goal=   None    Shift=    0.000
 RMSDP=1.95D-07 MaxDP=2.09D-05 DE=-5.51D-08 OVMax= 6.10D-05

 Cycle  17  Pass 1  IDiag  1:
 RMSU=  7.30D-08    CP:  9.81D-01  4.23D-01  4.94D-01  6.01D-01  5.33D-01
                    CP:  7.70D-01  8.76D-01  8.22D-01  1.07D+00  1.45D+00
                    CP:  1.58D+00  1.48D+00  1.26D+00  1.30D+00  1.14D+00
                    CP:  8.87D-01
 E= -5446.19316286017     Delta-E=       -0.000000008136 Rises=F Damp=F
 DIIS: error= 3.17D-07 at cycle  17 NSaved=  17.
 NSaved=17 IEnMin=17 EnMin= -5446.19316286017     IErMin=17 ErrMin= 3.17D-07
 ErrMax= 3.17D-07  0.00D+00 EMaxC= 1.00D-01 BMatC= 1.79D-09 BMatP= 4.21D-08
 IDIUse=1 WtCom= 1.00D+00 WtEn= 0.00D+00
 Coeff-Com:  0.617D-05-0.643D-05 0.762D-07-0.865D-05-0.580D-04-0.368D-03
 Coeff-Com: -0.121D-02-0.111D-02 0.150D-02 0.325D-02 0.106D-02-0.502D-02
 Coeff-Com: -0.153D-01-0.294D-01 0.454D-01 0.229D+00 0.772D+00
 Coeff:      0.617D-05-0.643D-05 0.762D-07-0.865D-05-0.580D-04-0.368D-03
 Coeff:     -0.121D-02-0.111D-02 0.150D-02 0.325D-02 0.106D-02-0.502D-02
 Coeff:     -0.153D-01-0.294D-01 0.454D-01 0.229D+00 0.772D+00
 Gap=     0.181 Goal=   None    Shift=    0.000
 Gap=     0.181 Goal=   None    Shift=    0.000
 RMSDP=7.00D-08 MaxDP=6.69D-06 DE=-8.14D-09 OVMax= 2.44D-05

 Cycle  18  Pass 1  IDiag  1:
 RMSU=  2.93D-08    CP:  9.81D-01  4.23D-01  4.94D-01  6.01D-01  5.33D-01
                    CP:  7.70D-01  8.76D-01  8.22D-01  1.07D+00  1.45D+00
                    CP:  1.58D+00  1.48D+00  1.27D+00  1.32D+00  1.19D+00
                    CP:  1.01D+00  9.90D-01
 E= -5446.19316286082     Delta-E=       -0.000000000655 Rises=F Damp=F
 DIIS: error= 8.03D-07 at cycle  18 NSaved=  18.
 NSaved=18 IEnMin=18 EnMin= -5446.19316286082     IErMin=17 ErrMin= 3.17D-07
 ErrMax= 8.03D-07  0.00D+00 EMaxC= 1.00D-01 BMatC= 2.06D-09 BMatP= 1.79D-09
 IDIUse=1 WtCom= 1.00D+00 WtEn= 0.00D+00
 Coeff-Com:  0.284D-05-0.244D-05-0.158D-05 0.220D-04 0.924D-05-0.403D-04
 Coeff-Com: -0.313D-03-0.571D-03-0.400D-03 0.592D-03 0.173D-02 0.197D-02
 Coeff-Com: -0.221D-02-0.220D-01-0.290D-01 0.274D-01 0.390D+00 0.633D+00
 Coeff:      0.284D-05-0.244D-05-0.158D-05 0.220D-04 0.924D-05-0.403D-04
 Coeff:     -0.313D-03-0.571D-03-0.400D-03 0.592D-03 0.173D-02 0.197D-02
 Coeff:     -0.221D-02-0.220D-01-0.290D-01 0.274D-01 0.390D+00 0.633D+00
 Gap=     0.181 Goal=   None    Shift=    0.000
 Gap=     0.181 Goal=   None    Shift=    0.000
 RMSDP=2.63D-08 MaxDP=2.16D-06 DE=-6.55D-10 OVMax= 8.60D-06

 Cycle  19  Pass 1  IDiag  1:
 RMSU=  1.13D-08    CP:  9.81D-01  4.23D-01  4.94D-01  6.01D-01  5.33D-01
                    CP:  7.70D-01  8.76D-01  8.21D-01  1.07D+00  1.45D+00
                    CP:  1.58D+00  1.48D+00  1.27D+00  1.33D+00  1.20D+00
                    CP:  1.05D+00  1.11D+00  8.14D-01
 E= -5446.19316286081     Delta-E=        0.000000000009 Rises=F Damp=F
 DIIS: error= 3.02D-07 at cycle  19 NSaved=  19.
 NSaved=19 IEnMin=18 EnMin= -5446.19316286082     IErMin=19 ErrMin= 3.02D-07
 ErrMax= 3.02D-07  0.00D+00 EMaxC= 1.00D-01 BMatC= 2.96D-10 BMatP= 1.79D-09
 IDIUse=1 WtCom= 1.00D+00 WtEn= 0.00D+00
 Coeff-Com:  0.601D-06-0.304D-06-0.851D-06 0.126D-04 0.137D-04 0.319D-04
 Coeff-Com:  0.149D-04-0.139D-03-0.428D-03-0.191D-03 0.679D-03 0.174D-02
 Coeff-Com:  0.134D-02-0.603D-02-0.205D-01-0.225D-01 0.805D-01 0.323D+00
 Coeff-Com:  0.643D+00
 Coeff:      0.601D-06-0.304D-06-0.851D-06 0.126D-04 0.137D-04 0.319D-04
 Coeff:      0.149D-04-0.139D-03-0.428D-03-0.191D-03 0.679D-03 0.174D-02
 Coeff:      0.134D-02-0.603D-02-0.205D-01-0.225D-01 0.805D-01 0.323D+00
 Coeff:      0.643D+00
 Gap=     0.181 Goal=   None    Shift=    0.000
 Gap=     0.181 Goal=   None    Shift=    0.000
 RMSDP=9.44D-09 MaxDP=1.28D-06 DE= 9.09D-12 OVMax= 2.50D-06

 Cycle  20  Pass 1  IDiag  1:
 RMSU=  4.38D-09    CP:  9.81D-01  4.23D-01  4.94D-01  6.01D-01  5.33D-01
                    CP:  7.70D-01  8.76D-01  8.21D-01  1.07D+00  1.45D+00
                    CP:  1.58D+00  1.48D+00  1.27D+00  1.33D+00  1.21D+00
                    CP:  1.07D+00  1.15D+00  9.20D-01  8.48D-01
 E= -5446.19316286078     Delta-E=        0.000000000035 Rises=F Damp=F
 DIIS: error= 3.64D-08 at cycle  20 NSaved=  20.
 NSaved=20 IEnMin=18 EnMin= -5446.19316286082     IErMin=20 ErrMin= 3.64D-08
 ErrMax= 3.64D-08  0.00D+00 EMaxC= 1.00D-01 BMatC= 1.12D-11 BMatP= 2.96D-10
 IDIUse=1 WtCom= 1.00D+00 WtEn= 0.00D+00
 Coeff-Com: -0.800D-07 0.165D-06-0.213D-06 0.352D-05 0.606D-05 0.239D-04
 Coeff-Com:  0.550D-04 0.118D-04-0.174D-03-0.191D-03 0.104D-03 0.627D-03
 Coeff-Com:  0.102D-02-0.440D-04-0.705D-02-0.168D-01-0.156D-01 0.728D-01
 Coeff-Com:  0.306D+00 0.660D+00
 Coeff:     -0.800D-07 0.165D-06-0.213D-06 0.352D-05 0.606D-05 0.239D-04
 Coeff:      0.550D-04 0.118D-04-0.174D-03-0.191D-03 0.104D-03 0.627D-03
 Coeff:      0.102D-02-0.440D-04-0.705D-02-0.168D-01-0.156D-01 0.728D-01
 Coeff:      0.306D+00 0.660D+00
 Gap=     0.181 Goal=   None    Shift=    0.000
 Gap=     0.181 Goal=   None    Shift=    0.000
 RMSDP=3.49D-09 MaxDP=3.18D-07 DE= 3.46D-11 OVMax= 9.53D-07

 Error on total polarization charges =  0.02797
 SCF Done:  E(UMN15) =  -5446.19316286     A.U. after   20 cycles
            NFock= 20  Conv=0.35D-08     -V/T= 2.0909
 <Sx>= 0.0000 <Sy>= 0.0000 <Sz>= 0.0000 <S**2>=-0.0000 S=-0.0000
 <L.S>=  0.00000000000    
 KE= 4.992254823767D+03 PE=-3.692829754797D+04 EE= 1.451563056985D+04
 SMD-CDS (non-electrostatic) energy       (kcal/mol) =       3.92
 (included in total energy above)
 Annihilation of the first spin contaminant:
 S**2 before annihilation    -0.0000,   after    -0.0000
 Leave Link  502 at Fri May  2 09:38:22 2025, MaxMem= 12348030976 cpu:           22241.7 elap:             933.2
 (Enter /sysapps/ubuntu-applications/gaussian-new/avx/g16/l801.exe)
 DoSCS=F DFT=T ScalE2(SS,OS)=  1.000000  1.000000
 Range of M.O.s used for correlation:     1   916
 NBasis=   916 NAE=   230 NBE=   230 NFC=     0 NFV=     0
 NROrb=    916 NOA=   230 NOB=   230 NVA=   686 NVB=   686

 **** Warning!!: The largest alpha MO coefficient is  0.12726904D+02


 **** Warning!!: The largest beta MO coefficient is  0.12726904D+02

 Leave Link  801 at Fri May  2 09:38:22 2025, MaxMem= 12348030976 cpu:               2.1 elap:               0.1
 (Enter /sysapps/ubuntu-applications/gaussian-new/avx/g16/l1101.exe)
 Using compressed storage, NAtomX=    69.
 Will process     70 centers per pass.
   1 Symmetry operations used in ECPInt.
 ECPInt:  NShTT=   77815 NPrTT=  297642 LenC2=   61419 LenP2D=  143534.
 LDataN:  DoStor=T MaxTD1=10 Len=  848
 Number of processors reduced to  10 by ecpmxn.
 Leave Link 1101 at Fri May  2 09:38:34 2025, MaxMem= 12348030976 cpu:             212.0 elap:              11.8
 (Enter /sysapps/ubuntu-applications/gaussian-new/avx/g16/l1102.exe)
 Symmetrizing basis deriv contribution to polar:
 IMax=3 JMax=2 DiffMx= 0.00D+00
 Leave Link 1102 at Fri May  2 09:38:36 2025, MaxMem= 12348030976 cpu:               4.4 elap:               0.2
 (Enter /sysapps/ubuntu-applications/gaussian-new/avx/g16/l1110.exe)
 Forming Gx(P) for the SCF density, NAtomX=    69.
 Integral derivatives from FoFJK, PRISM(SPDF).
 Do as many integral derivatives as possible in FoFJK.
 G2DrvN: MDV=   12348024906.
 G2DrvN: will do    70 centers at a time, making    1 passes.
 Calling FoFCou, ICntrl=  3107 FMM=T I1Cent=   0 AccDes= 0.00D+00.
 FoFJK:  IHMeth= 1 ICntrl=    3107 DoSepK=F KAlg= 0 I1Cent=           0 FoldK=F
 IRaf=         0 NMat=       1 IRICut=       1 DoRegI=T DoRafI=F ISym2E= 0 IDoP0=0 IntGTp=1.
 FoFCou: FMM=T IPFlag=           0 FMFlag=      100000 FMFlg1=        2001
         NFxFlg=           0 DoJE=F BraDBF=F KetDBF=F FulRan=T
         wScrn=  0.000000 ICntrl=      3107 IOpCl=  1 I1Cent=           0 NGrid=           0
         NMat0=    1 NMatS0=      1 NMatT0=    0 NMatD0=    1 NMtDS0=    0 NMtDT0=    0
 Symmetry not used in FoFCou.
 FMM levels:  10  Number of levels for PrismC:   9
 Defaulting to unpruned grid for atomic number  71.
 Defaulting to unpruned grid for atomic number  71.
 Defaulting to unpruned grid for atomic number  71.
 Defaulting to unpruned grid for atomic number  71.
 Defaulting to unpruned grid for atomic number  71.
 Defaulting to unpruned grid for atomic number  71.
 Defaulting to unpruned grid for atomic number  71.
 Defaulting to unpruned grid for atomic number  71.
 Defaulting to unpruned grid for atomic number  71.
 Defaulting to unpruned grid for atomic number  71.
 Defaulting to unpruned grid for atomic number  71.
 Defaulting to unpruned grid for atomic number  71.
 Defaulting to unpruned grid for atomic number  71.
 Defaulting to unpruned grid for atomic number  71.
 Defaulting to unpruned grid for atomic number  71.
 Defaulting to unpruned grid for atomic number  71.
 Defaulting to unpruned grid for atomic number  71.
 Defaulting to unpruned grid for atomic number  71.
 Defaulting to unpruned grid for atomic number  71.
 Defaulting to unpruned grid for atomic number  71.
 Defaulting to unpruned grid for atomic number  71.
 Defaulting to unpruned grid for atomic number  71.
 Defaulting to unpruned grid for atomic number  71.
 Defaulting to unpruned grid for atomic number  71.
 NEqPCM:  Using equilibrium solvation (IEInf=0, Eps=  10.1250, EpsInf=   2.0874)
 G2PCM: DoFxE=T DoFxN=T DoGrad=T DoDP/DQ/DG/TGxP=FFFF NFrqRd=   0 IEInf=0 SqF1=F DoCFld=F IF1Alg=4.
 GePol: Maximum number of non-zero 1st derivatives   =     260
 End of G2Drv F.D. properties file   721 does not exist.
 End of G2Drv F.D. properties file   722 does not exist.
 End of G2Drv F.D. properties file   788 does not exist.
 Leave Link 1110 at Fri May  2 10:22:04 2025, MaxMem= 12348030976 cpu:           62480.1 elap:            2608.0
 (Enter /sysapps/ubuntu-applications/gaussian-new/avx/g16/l1002.exe)
 Minotr:  UHF open shell wavefunction.
          IDoAtm=11111111111111111111111111111111111111111111111111
          IDoAtm=1111111111111111111
 NEqPCM:  Using equilibrium solvation (IEInf=0, Eps=  10.1250, EpsInf=   2.0874)
          Direct CPHF calculation.
          Differentiating once with respect to nuclear coordinates.
          Requested convergence is 1.0D-08 RMS, and 1.0D-07 maximum.
          Secondary convergence is 1.0D-12 RMS, and 1.0D-12 maximum.
          NewPWx=T KeepS1=F KeepF1=F KeepIn=T MapXYZ=F SortEE=F KeepMc=T.
 Defaulting to unpruned grid for atomic number  71.
        21347 words used for storage of precomputed grid.
 Two-electron integral symmetry not used.
          MDV=   12348030976 using IRadAn=       1.
          Solving linear equations simultaneously, MaxMat=      72.
 FoF2E skips out because all densities are zero.
 CalDSu exits because no D1Ps are significant.
 FoFJK:  IHMeth= 1 ICntrl=       0 DoSepK=F KAlg= 0 I1Cent=           0 FoldK=F
 IRaf= 840000000 NMat=      72 IRICut=       1 DoRegI=T DoRafI=F ISym2E= 0 IDoP0=3 IntGTp=3.
 Defaulting to unpruned grid for atomic number  71.
 Defaulting to unpruned grid for atomic number  71.
 Defaulting to unpruned grid for atomic number  71.
 Defaulting to unpruned grid for atomic number  71.
 Defaulting to unpruned grid for atomic number  71.
 Defaulting to unpruned grid for atomic number  71.
 Defaulting to unpruned grid for atomic number  71.
 Defaulting to unpruned grid for atomic number  71.
 Defaulting to unpruned grid for atomic number  71.
 Defaulting to unpruned grid for atomic number  71.
 Defaulting to unpruned grid for atomic number  71.
 Defaulting to unpruned grid for atomic number  71.
 Defaulting to unpruned grid for atomic number  71.
 Defaulting to unpruned grid for atomic number  71.
 Defaulting to unpruned grid for atomic number  71.
 Defaulting to unpruned grid for atomic number  71.
 Defaulting to unpruned grid for atomic number  71.
 Defaulting to unpruned grid for atomic number  71.
 Defaulting to unpruned grid for atomic number  71.
 Defaulting to unpruned grid for atomic number  71.
 Defaulting to unpruned grid for atomic number  71.
 Defaulting to unpruned grid for atomic number  71.
 Defaulting to unpruned grid for atomic number  71.
 Defaulting to unpruned grid for atomic number  71.
          There are   210 degrees of freedom in the 1st order CPHF.  IDoFFX=6 NUNeed=     0.
    207 vectors produced by pass  0 Test12= 3.16D-13 1.00D-09 XBig12= 3.59D-01 2.16D-01.
 AX will form    72 AO Fock derivatives at one time.
    204 vectors produced by pass  1 Test12= 3.16D-13 1.00D-09 XBig12= 1.73D-01 4.30D-02.
    204 vectors produced by pass  2 Test12= 3.16D-13 1.00D-09 XBig12= 2.42D-03 3.75D-03.
    204 vectors produced by pass  3 Test12= 3.16D-13 1.00D-09 XBig12= 2.98D-05 4.68D-04.
    204 vectors produced by pass  4 Test12= 3.16D-13 1.00D-09 XBig12= 2.90D-07 3.00D-05.
    204 vectors produced by pass  5 Test12= 3.16D-13 1.00D-09 XBig12= 1.75D-09 4.38D-06.
    180 vectors produced by pass  6 Test12= 3.16D-13 1.00D-09 XBig12= 1.10D-11 3.62D-07.
     65 vectors produced by pass  7 Test12= 3.16D-13 1.00D-09 XBig12= 6.54D-14 1.85D-08.
      3 vectors produced by pass  8 Test12= 3.16D-13 1.00D-09 XBig12= 2.80D-15 1.42D-09.
      3 vectors produced by pass  9 Test12= 3.16D-13 1.00D-09 XBig12= 6.95D-15 2.01D-09.
      1 vectors produced by pass 10 Test12= 3.16D-13 1.00D-09 XBig12= 2.22D-15 1.29D-09.
 InvSVY:  IOpt=1 It=  1 EMax= 1.11D-15
 Solved reduced A of dimension  1479 with   210 vectors.
 End of Minotr F.D. properties file   721 does not exist.
 End of Minotr F.D. properties file   722 does not exist.
 End of Minotr F.D. properties file   788 does not exist.
 Leave Link 1002 at Fri May  2 12:28:44 2025, MaxMem= 12348030976 cpu:          181777.2 elap:            7597.3
 (Enter /sysapps/ubuntu-applications/gaussian-new/avx/g16/l601.exe)
 Copying SCF densities to generalized density rwf, IOpCl= 1 IROHF=0.

 **********************************************************************

            Population analysis using the SCF density.

 **********************************************************************

 Alpha  occ. eigenvalues --  -88.06497 -88.06049 -88.06015 -24.34783 -24.34667
 Alpha  occ. eigenvalues --  -24.34387 -24.34383 -24.34335 -24.34220 -24.34037
 Alpha  occ. eigenvalues --  -24.34010 -24.33966 -18.89507 -18.89197 -18.87491
 Alpha  occ. eigenvalues --  -18.85407 -18.85078 -18.84989 -18.84948 -18.84575
 Alpha  occ. eigenvalues --  -18.84467 -18.84258 -18.84187 -18.84091 -18.83530
 Alpha  occ. eigenvalues --  -18.83143 -17.82155 -14.24760 -14.18814 -14.14989
 Alpha  occ. eigenvalues --  -14.14669 -11.57007 -11.56998 -11.56970 -10.33850
 Alpha  occ. eigenvalues --  -10.33679 -10.33490 -10.23128 -10.22796 -10.22268
 Alpha  occ. eigenvalues --  -10.17981 -10.16930 -10.14930 -10.14139 -10.14060
 Alpha  occ. eigenvalues --  -10.12966 -10.11708 -10.11293 -10.11002 -10.10874
 Alpha  occ. eigenvalues --  -10.08014 -10.06450 -10.06158 -10.06125 -10.06083
 Alpha  occ. eigenvalues --  -10.05999  -7.96343  -7.95884  -7.95809  -6.15855
 Alpha  occ. eigenvalues --   -6.15810  -6.15694  -6.15406  -6.15354  -6.15330
 Alpha  occ. eigenvalues --   -6.15279  -6.15235  -6.15176  -5.42020  -5.41985
 Alpha  occ. eigenvalues --   -5.41982  -5.41967  -5.41930  -2.35161  -1.38250
 Alpha  occ. eigenvalues --   -1.38137  -1.37825  -1.28296  -1.28242  -1.28156
 Alpha  occ. eigenvalues --   -1.28037  -1.27798  -1.27766  -1.24846  -1.24609
 Alpha  occ. eigenvalues --   -1.23657  -1.20469  -1.19423  -1.18638  -1.18494
 Alpha  occ. eigenvalues --   -1.17690  -1.14645  -1.11902  -1.08536  -1.07592
 Alpha  occ. eigenvalues --   -1.07327  -1.06868  -1.06628  -1.05683  -1.05308
 Alpha  occ. eigenvalues --   -1.05067  -0.99793  -0.97475  -0.95561  -0.91997
 Alpha  occ. eigenvalues --   -0.90280  -0.87682  -0.84562  -0.81424  -0.80602
 Alpha  occ. eigenvalues --   -0.80274  -0.80229  -0.80077  -0.78578  -0.76708
 Alpha  occ. eigenvalues --   -0.76161  -0.74227  -0.72597  -0.72404  -0.72120
 Alpha  occ. eigenvalues --   -0.71991  -0.68235  -0.68213  -0.68104  -0.67968
 Alpha  occ. eigenvalues --   -0.67728  -0.67671  -0.66622  -0.66147  -0.65606
 Alpha  occ. eigenvalues --   -0.65268  -0.63764  -0.63284  -0.62850  -0.62768
 Alpha  occ. eigenvalues --   -0.62349  -0.62097  -0.61947  -0.61783  -0.61677
 Alpha  occ. eigenvalues --   -0.61655  -0.61542  -0.61503  -0.61388  -0.60851
 Alpha  occ. eigenvalues --   -0.60109  -0.58925  -0.58210  -0.57598  -0.57461
 Alpha  occ. eigenvalues --   -0.57335  -0.56968  -0.56789  -0.56564  -0.56331
 Alpha  occ. eigenvalues --   -0.56073  -0.55993  -0.55816  -0.55392  -0.55090
 Alpha  occ. eigenvalues --   -0.54911  -0.54487  -0.54222  -0.54140  -0.53986
 Alpha  occ. eigenvalues --   -0.53914  -0.53684  -0.53476  -0.53350  -0.52296
 Alpha  occ. eigenvalues --   -0.52015  -0.51918  -0.51861  -0.51712  -0.51534
 Alpha  occ. eigenvalues --   -0.51271  -0.51200  -0.50713  -0.49568  -0.49495
 Alpha  occ. eigenvalues --   -0.49284  -0.49083  -0.48862  -0.48772  -0.47997
 Alpha  occ. eigenvalues --   -0.47673  -0.47077  -0.46591  -0.46390  -0.45920
[...]
    44   Atom        0.000000      0.000000      0.000000
    45   Atom        0.000000      0.000000      0.000000
    46   Atom        0.000000      0.000000      0.000000
    47   Atom        0.000000      0.000000      0.000000
    48   Atom        0.000000      0.000000      0.000000
    49   Atom        0.000000      0.000000      0.000000
    50   Atom        0.000000      0.000000      0.000000
    51   Atom        0.000000      0.000000      0.000000
    52   Atom        0.000000      0.000000      0.000000
    53   Atom        0.000000      0.000000      0.000000
    54   Atom        0.000000      0.000000      0.000000
    55   Atom        0.000000      0.000000      0.000000
    56   Atom        0.000000      0.000000      0.000000
    57   Atom        0.000000      0.000000      0.000000
    58   Atom        0.000000      0.000000      0.000000
    59   Atom        0.000000      0.000000      0.000000
    60   Atom        0.000000      0.000000      0.000000
    61   Atom        0.000000      0.000000      0.000000
    62   Atom        0.000000      0.000000      0.000000
    63   Atom        0.000000      0.000000      0.000000
    64   Atom        0.000000      0.000000      0.000000
    65   Atom        0.000000      0.000000      0.000000
    66   Atom        0.000000      0.000000      0.000000
    67   Atom        0.000000      0.000000      0.000000
    68   Atom        0.000000      0.000000      0.000000
    69   Atom        0.000000      0.000000      0.000000
 --------------------------------------------------------


 ---------------------------------------------------------------------------------
              Anisotropic Spin Dipole Couplings in Principal Axis System
 ---------------------------------------------------------------------------------

       Atom             a.u.   MegaHertz   Gauss  10(-4) cm-1        Axes

              Baa     0.0000     0.000     0.000     0.000  1.0000  0.0000  0.0000
     1 C(13)  Bbb     0.0000     0.000     0.000     0.000 -0.0000  1.0000  0.0000
              Bcc     0.0000     0.000     0.000     0.000  0.0000  0.0000  1.0000
 
              Baa     0.0000     0.000     0.000     0.000  1.0000  0.0000  0.0000
     2 C(13)  Bbb     0.0000     0.000     0.000     0.000 -0.0000  1.0000  0.0000
              Bcc     0.0000     0.000     0.000     0.000  0.0000  0.0000  1.0000
 
              Baa     0.0000     0.000     0.000     0.000  1.0000  0.0000  0.0000
     3 C(13)  Bbb     0.0000     0.000     0.000     0.000 -0.0000  1.0000  0.0000
              Bcc     0.0000     0.000     0.000     0.000  0.0000  0.0000  1.0000
 
              Baa     0.0000    -0.000    -0.000    -0.000  1.0000  0.0000  0.0000
     4 O(17)  Bbb     0.0000    -0.000    -0.000    -0.000 -0.0000  1.0000  0.0000
              Bcc     0.0000    -0.000    -0.000    -0.000  0.0000  0.0000  1.0000
 
              Baa     0.0000    -0.000    -0.000    -0.000  1.0000  0.0000  0.0000
     5 O(17)  Bbb     0.0000    -0.000    -0.000    -0.000 -0.0000  1.0000  0.0000
              Bcc     0.0000    -0.000    -0.000    -0.000  0.0000  0.0000  1.0000
 
              Baa     0.0000    -0.000    -0.000    -0.000  1.0000  0.0000  0.0000
     6 O(17)  Bbb     0.0000    -0.000    -0.000    -0.000 -0.0000  1.0000  0.0000
              Bcc     0.0000    -0.000    -0.000    -0.000  0.0000  0.0000  1.0000
 
              Baa     0.0000    -0.000    -0.000    -0.000  1.0000  0.0000  0.0000
     7 O(17)  Bbb     0.0000    -0.000    -0.000    -0.000 -0.0000  1.0000  0.0000
              Bcc     0.0000    -0.000    -0.000    -0.000  0.0000  0.0000  1.0000
 
              Baa     0.0000     0.000     0.000     0.000  1.0000  0.0000  0.0000
     8 C(13)  Bbb     0.0000     0.000     0.000     0.000 -0.0000  1.0000  0.0000
              Bcc     0.0000     0.000     0.000     0.000  0.0000  0.0000  1.0000
 
              Baa     0.0000     0.000     0.000     0.000  1.0000  0.0000  0.0000
     9 C(13)  Bbb     0.0000     0.000     0.000     0.000 -0.0000  1.0000  0.0000
              Bcc     0.0000     0.000     0.000     0.000  0.0000  0.0000  1.0000
 
              Baa     0.0000     0.000     0.000     0.000  1.0000  0.0000  0.0000
    10 H(1)   Bbb     0.0000     0.000     0.000     0.000 -0.0000  1.0000  0.0000
              Bcc     0.0000     0.000     0.000     0.000  0.0000  0.0000  1.0000
 
              Baa     0.0000     0.000     0.000     0.000  1.0000  0.0000  0.0000
    11 H(1)   Bbb     0.0000     0.000     0.000     0.000 -0.0000  1.0000  0.0000
              Bcc     0.0000     0.000     0.000     0.000  0.0000  0.0000  1.0000
 
              Baa     0.0000     0.000     0.000     0.000  1.0000  0.0000  0.0000
    12 H(1)   Bbb     0.0000     0.000     0.000     0.000 -0.0000  1.0000  0.0000
              Bcc     0.0000     0.000     0.000     0.000  0.0000  0.0000  1.0000
 
              Baa     0.0000     0.000     0.000     0.000  1.0000  0.0000  0.0000
    13 H(1)   Bbb     0.0000     0.000     0.000     0.000 -0.0000  1.0000  0.0000
              Bcc     0.0000     0.000     0.000     0.000  0.0000  0.0000  1.0000
 
              Baa     0.0000     0.000     0.000     0.000  1.0000  0.0000  0.0000
    14 H(1)   Bbb     0.0000     0.000     0.000     0.000 -0.0000  1.0000  0.0000
              Bcc     0.0000     0.000     0.000     0.000  0.0000  0.0000  1.0000
 
              Baa     0.0000     0.000     0.000     0.000  1.0000  0.0000  0.0000
    15 H(1)   Bbb     0.0000     0.000     0.000     0.000 -0.0000  1.0000  0.0000
              Bcc     0.0000     0.000     0.000     0.000  0.0000  0.0000  1.0000
 
              Baa     0.0000    -0.000    -0.000    -0.000  1.0000  0.0000  0.0000
    16 O(17)  Bbb     0.0000    -0.000    -0.000    -0.000 -0.0000  1.0000  0.0000
              Bcc     0.0000    -0.000    -0.000    -0.000  0.0000  0.0000  1.0000
 
              Baa     0.0000    -0.000    -0.000    -0.000  1.0000  0.0000  0.0000
    17 O(17)  Bbb     0.0000    -0.000    -0.000    -0.000 -0.0000  1.0000  0.0000
              Bcc     0.0000    -0.000    -0.000    -0.000  0.0000  0.0000  1.0000
 
              Baa     0.0000    -0.000    -0.000    -0.000  1.0000  0.0000  0.0000
    18 O(17)  Bbb     0.0000    -0.000    -0.000    -0.000 -0.0000  1.0000  0.0000
              Bcc     0.0000    -0.000    -0.000    -0.000  0.0000  0.0000  1.0000
 
              Baa     0.0000     0.000     0.000     0.000  1.0000  0.0000  0.0000
    19 S(33)  Bbb     0.0000     0.000     0.000     0.000 -0.0000  1.0000  0.0000
              Bcc     0.0000     0.000     0.000     0.000  0.0000  0.0000  1.0000
 
              Baa     0.0000     0.000     0.000     0.000  1.0000  0.0000  0.0000
    20 S(33)  Bbb     0.0000     0.000     0.000     0.000 -0.0000  1.0000  0.0000
              Bcc     0.0000     0.000     0.000     0.000  0.0000  0.0000  1.0000
 
              Baa     0.0000     0.000     0.000     0.000  1.0000  0.0000  0.0000
    21 S(33)  Bbb     0.0000     0.000     0.000     0.000 -0.0000  1.0000  0.0000
              Bcc     0.0000     0.000     0.000     0.000  0.0000  0.0000  1.0000
 
              Baa     0.0000    -0.000    -0.000    -0.000  1.0000  0.0000  0.0000
    22 O(17)  Bbb     0.0000    -0.000    -0.000    -0.000 -0.0000  1.0000  0.0000
              Bcc     0.0000    -0.000    -0.000    -0.000  0.0000  0.0000  1.0000
 
              Baa     0.0000    -0.000    -0.000    -0.000  1.0000  0.0000  0.0000
    23 O(17)  Bbb     0.0000    -0.000    -0.000    -0.000 -0.0000  1.0000  0.0000
              Bcc     0.0000    -0.000    -0.000    -0.000  0.0000  0.0000  1.0000
 
              Baa     0.0000    -0.000    -0.000    -0.000  1.0000  0.0000  0.0000
    24 O(17)  Bbb     0.0000    -0.000    -0.000    -0.000 -0.0000  1.0000  0.0000
              Bcc     0.0000    -0.000    -0.000    -0.000  0.0000  0.0000  1.0000
 
              Baa     0.0000    -0.000    -0.000    -0.000  1.0000  0.0000  0.0000
    25 O(17)  Bbb     0.0000    -0.000    -0.000    -0.000 -0.0000  1.0000  0.0000
              Bcc     0.0000    -0.000    -0.000    -0.000  0.0000  0.0000  1.0000
 
              Baa     0.0000    -0.000    -0.000    -0.000  1.0000  0.0000  0.0000
    26 O(17)  Bbb     0.0000    -0.000    -0.000    -0.000 -0.0000  1.0000  0.0000
              Bcc     0.0000    -0.000    -0.000    -0.000  0.0000  0.0000  1.0000
 
              Baa     0.0000    -0.000    -0.000    -0.000  1.0000  0.0000  0.0000
    27 O(17)  Bbb     0.0000    -0.000    -0.000    -0.000 -0.0000  1.0000  0.0000
              Bcc     0.0000    -0.000    -0.000    -0.000  0.0000  0.0000  1.0000
 
              Baa     0.0000     0.000     0.000     0.000  1.0000  0.0000  0.0000
    28 C(13)  Bbb     0.0000     0.000     0.000     0.000 -0.0000  1.0000  0.0000
              Bcc     0.0000     0.000     0.000     0.000  0.0000  0.0000  1.0000
 
              Baa     0.0000     0.000     0.000     0.000  1.0000  0.0000  0.0000
    29 C(13)  Bbb     0.0000     0.000     0.000     0.000 -0.0000  1.0000  0.0000
              Bcc     0.0000     0.000     0.000     0.000  0.0000  0.0000  1.0000
 
              Baa     0.0000     0.000     0.000     0.000  1.0000  0.0000  0.0000
    30 C(13)  Bbb     0.0000     0.000     0.000     0.000 -0.0000  1.0000  0.0000
              Bcc     0.0000     0.000     0.000     0.000  0.0000  0.0000  1.0000
 
              Baa     0.0000     0.000     0.000     0.000  1.0000  0.0000  0.0000
    31 F(19)  Bbb     0.0000     0.000     0.000     0.000 -0.0000  1.0000  0.0000
              Bcc     0.0000     0.000     0.000     0.000  0.0000  0.0000  1.0000
 
              Baa     0.0000     0.000     0.000     0.000  1.0000  0.0000  0.0000
    32 F(19)  Bbb     0.0000     0.000     0.000     0.000 -0.0000  1.0000  0.0000
              Bcc     0.0000     0.000     0.000     0.000  0.0000  0.0000  1.0000
 
              Baa     0.0000     0.000     0.000     0.000  1.0000  0.0000  0.0000
    33 F(19)  Bbb     0.0000     0.000     0.000     0.000 -0.0000  1.0000  0.0000
              Bcc     0.0000     0.000     0.000     0.000  0.0000  0.0000  1.0000
 
              Baa     0.0000     0.000     0.000     0.000  1.0000  0.0000  0.0000
    34 F(19)  Bbb     0.0000     0.000     0.000     0.000 -0.0000  1.0000  0.0000
              Bcc     0.0000     0.000     0.000     0.000  0.0000  0.0000  1.0000
 
              Baa     0.0000     0.000     0.000     0.000  1.0000  0.0000  0.0000
    35 F(19)  Bbb     0.0000     0.000     0.000     0.000 -0.0000  1.0000  0.0000
              Bcc     0.0000     0.000     0.000     0.000  0.0000  0.0000  1.0000
 
              Baa     0.0000     0.000     0.000     0.000  1.0000  0.0000  0.0000
    36 F(19)  Bbb     0.0000     0.000     0.000     0.000 -0.0000  1.0000  0.0000
              Bcc     0.0000     0.000     0.000     0.000  0.0000  0.0000  1.0000
 
              Baa     0.0000     0.000     0.000     0.000  1.0000  0.0000  0.0000
    37 F(19)  Bbb     0.0000     0.000     0.000     0.000 -0.0000  1.0000  0.0000
              Bcc     0.0000     0.000     0.000     0.000  0.0000  0.0000  1.0000
 
              Baa     0.0000     0.000     0.000     0.000  1.0000  0.0000  0.0000
    38 F(19)  Bbb     0.0000     0.000     0.000     0.000 -0.0000  1.0000  0.0000
              Bcc     0.0000     0.000     0.000     0.000  0.0000  0.0000  1.0000
 
              Baa     0.0000     0.000     0.000     0.000  1.0000  0.0000  0.0000
    39 F(19)  Bbb     0.0000     0.000     0.000     0.000 -0.0000  1.0000  0.0000
              Bcc     0.0000     0.000     0.000     0.000  0.0000  0.0000  1.0000
 
              Baa     0.0000     0.000     0.000     0.000  1.0000  0.0000  0.0000
    40 C(13)  Bbb     0.0000     0.000     0.000     0.000 -0.0000  1.0000  0.0000
              Bcc     0.0000     0.000     0.000     0.000  0.0000  0.0000  1.0000
 
              Baa     0.0000     0.000     0.000     0.000  1.0000  0.0000  0.0000
    41 C(13)  Bbb     0.0000     0.000     0.000     0.000 -0.0000  1.0000  0.0000
              Bcc     0.0000     0.000     0.000     0.000  0.0000  0.0000  1.0000
 
              Baa     0.0000     0.000     0.000     0.000  1.0000  0.0000  0.0000
    42 C(13)  Bbb     0.0000     0.000     0.000     0.000 -0.0000  1.0000  0.0000
              Bcc     0.0000     0.000     0.000     0.000  0.0000  0.0000  1.0000
 
              Baa     0.0000     0.000     0.000     0.000  1.0000  0.0000  0.0000
    43 C(13)  Bbb     0.0000     0.000     0.000     0.000 -0.0000  1.0000  0.0000
              Bcc     0.0000     0.000     0.000     0.000  0.0000  0.0000  1.0000
 
              Baa     0.0000     0.000     0.000     0.000  1.0000  0.0000  0.0000
    44 C(13)  Bbb     0.0000     0.000     0.000     0.000 -0.0000  1.0000  0.0000
              Bcc     0.0000     0.000     0.000     0.000  0.0000  0.0000  1.0000
 
              Baa     0.0000     0.000     0.000     0.000  1.0000  0.0000  0.0000
    45 C(13)  Bbb     0.0000     0.000     0.000     0.000 -0.0000  1.0000  0.0000
              Bcc     0.0000     0.000     0.000     0.000  0.0000  0.0000  1.0000
 
              Baa     0.0000     0.000     0.000     0.000  1.0000  0.0000  0.0000
    46 C(13)  Bbb     0.0000     0.000     0.000     0.000 -0.0000  1.0000  0.0000
              Bcc     0.0000     0.000     0.000     0.000  0.0000  0.0000  1.0000
 
              Baa     0.0000     0.000     0.000     0.000  1.0000  0.0000  0.0000
    47 H(1)   Bbb     0.0000     0.000     0.000     0.000 -0.0000  1.0000  0.0000
              Bcc     0.0000     0.000     0.000     0.000  0.0000  0.0000  1.0000
 
              Baa     0.0000     0.000     0.000     0.000  1.0000  0.0000  0.0000
    48 H(1)   Bbb     0.0000     0.000     0.000     0.000 -0.0000  1.0000  0.0000
              Bcc     0.0000     0.000     0.000     0.000  0.0000  0.0000  1.0000
 
              Baa     0.0000     0.000     0.000     0.000  1.0000  0.0000  0.0000
    49 H(1)   Bbb     0.0000     0.000     0.000     0.000 -0.0000  1.0000  0.0000
              Bcc     0.0000     0.000     0.000     0.000  0.0000  0.0000  1.0000
 
              Baa     0.0000     0.000     0.000     0.000  1.0000  0.0000  0.0000
    50 N(14)  Bbb     0.0000     0.000     0.000     0.000 -0.0000  1.0000  0.0000
              Bcc     0.0000     0.000     0.000     0.000  0.0000  0.0000  1.0000
 
              Baa     0.0000     0.000     0.000     0.000  1.0000  0.0000  0.0000
    51 N(14)  Bbb     0.0000     0.000     0.000     0.000 -0.0000  1.0000  0.0000
              Bcc     0.0000     0.000     0.000     0.000  0.0000  0.0000  1.0000
 
              Baa     0.0000     0.000     0.000     0.000  1.0000  0.0000  0.0000
    52 N(14)  Bbb     0.0000     0.000     0.000     0.000 -0.0000  1.0000  0.0000
              Bcc     0.0000     0.000     0.000     0.000  0.0000  0.0000  1.0000
 
              Baa     0.0000     0.000     0.000     0.000  1.0000  0.0000  0.0000
    53 N(14)  Bbb     0.0000     0.000     0.000     0.000 -0.0000  1.0000  0.0000
              Bcc     0.0000     0.000     0.000     0.000  0.0000  0.0000  1.0000
 
              Baa     0.0000     0.000     0.000     0.000  1.0000  0.0000  0.0000
    54 C(13)  Bbb     0.0000     0.000     0.000     0.000 -0.0000  1.0000  0.0000
              Bcc     0.0000     0.000     0.000     0.000  0.0000  0.0000  1.0000
 
              Baa     0.0000     0.000     0.000     0.000  1.0000  0.0000  0.0000
    55 H(1)   Bbb     0.0000     0.000     0.000     0.000 -0.0000  1.0000  0.0000
              Bcc     0.0000     0.000     0.000     0.000  0.0000  0.0000  1.0000
 
              Baa     0.0000     0.000     0.000     0.000  1.0000  0.0000  0.0000
    56 H(1)   Bbb     0.0000     0.000     0.000     0.000 -0.0000  1.0000  0.0000
              Bcc     0.0000     0.000     0.000     0.000  0.0000  0.0000  1.0000
 
              Baa     0.0000     0.000     0.000     0.000  1.0000  0.0000  0.0000
    57 C(13)  Bbb     0.0000     0.000     0.000     0.000 -0.0000  1.0000  0.0000
              Bcc     0.0000     0.000     0.000     0.000  0.0000  0.0000  1.0000
 
              Baa     0.0000     0.000     0.000     0.000  1.0000  0.0000  0.0000
    58 C(13)  Bbb     0.0000     0.000     0.000     0.000 -0.0000  1.0000  0.0000
              Bcc     0.0000     0.000     0.000     0.000  0.0000  0.0000  1.0000
 
              Baa     0.0000     0.000     0.000     0.000  1.0000  0.0000  0.0000
    59 C(13)  Bbb     0.0000     0.000     0.000     0.000 -0.0000  1.0000  0.0000
              Bcc     0.0000     0.000     0.000     0.000  0.0000  0.0000  1.0000
 
              Baa     0.0000     0.000     0.000     0.000  1.0000  0.0000  0.0000
    60 C(13)  Bbb     0.0000     0.000     0.000     0.000 -0.0000  1.0000  0.0000
              Bcc     0.0000     0.000     0.000     0.000  0.0000  0.0000  1.0000
 
              Baa     0.0000     0.000     0.000     0.000  1.0000  0.0000  0.0000
    61 H(1)   Bbb     0.0000     0.000     0.000     0.000 -0.0000  1.0000  0.0000
              Bcc     0.0000     0.000     0.000     0.000  0.0000  0.0000  1.0000
 
              Baa     0.0000     0.000     0.000     0.000  1.0000  0.0000  0.0000
    62 C(13)  Bbb     0.0000     0.000     0.000     0.000 -0.0000  1.0000  0.0000
              Bcc     0.0000     0.000     0.000     0.000  0.0000  0.0000  1.0000
 
              Baa     0.0000     0.000     0.000     0.000  1.0000  0.0000  0.0000
    63 H(1)   Bbb     0.0000     0.000     0.000     0.000 -0.0000  1.0000  0.0000
              Bcc     0.0000     0.000     0.000     0.000  0.0000  0.0000  1.0000
 
              Baa     0.0000     0.000     0.000     0.000  1.0000  0.0000  0.0000
    64 C(13)  Bbb     0.0000     0.000     0.000     0.000 -0.0000  1.0000  0.0000
              Bcc     0.0000     0.000     0.000     0.000  0.0000  0.0000  1.0000
 
              Baa     0.0000     0.000     0.000     0.000  1.0000  0.0000  0.0000
    65 H(1)   Bbb     0.0000     0.000     0.000     0.000 -0.0000  1.0000  0.0000
              Bcc     0.0000     0.000     0.000     0.000  0.0000  0.0000  1.0000
 
              Baa     0.0000     0.000     0.000     0.000  1.0000  0.0000  0.0000
    66 H(1)   Bbb     0.0000     0.000     0.000     0.000 -0.0000  1.0000  0.0000
              Bcc     0.0000     0.000     0.000     0.000  0.0000  0.0000  1.0000
 
              Baa     0.0000     0.000     0.000     0.000  1.0000  0.0000  0.0000
    67 H(1)   Bbb     0.0000     0.000     0.000     0.000 -0.0000  1.0000  0.0000
              Bcc     0.0000     0.000     0.000     0.000  0.0000  0.0000  1.0000
 
              Baa     0.0000     0.000     0.000     0.000  1.0000  0.0000  0.0000
    68 Lu(175 Bbb     0.0000     0.000     0.000     0.000 -0.0000  1.0000  0.0000
              Bcc     0.0000     0.000     0.000     0.000  0.0000  0.0000  1.0000
 
              Baa     0.0000    -0.000    -0.000    -0.000  1.0000  0.0000  0.0000
    69 O(17)  Bbb     0.0000    -0.000    -0.000    -0.000 -0.0000  1.0000  0.0000
              Bcc     0.0000    -0.000    -0.000    -0.000  0.0000  0.0000  1.0000
 

 ---------------------------------------------------------------------------------

 No NMR shielding tensors so no spin-rotation constants.
 Leave Link  601 at Sat May  3 02:40:10 2025, MaxMem= 12348030976 cpu:              35.9 elap:               1.6
 (Enter /sysapps/ubuntu-applications/gaussian-new/avx/g16/l9999.exe)

 This type of calculation cannot be archived.


 ... FOR AFTERWARDS A MAN FINDS PLEASURE IN HIS PAINS,
 WHEN HE HAS SUFFERED LONG AND WANDERED FAR.

                                    -- HOMER
 Job cpu time:      17 days  1 hours 59 minutes 45.5 seconds.
 Elapsed time:       0 days 17 hours 16 minutes  0.8 seconds.
 File lengths (MBytes):  RWF=  13924 Int=      0 D2E=      0 Chk=    136 Scr=      8
 Normal termination of Gaussian 16 at Sat May  3 02:40:10 2025.
