 Entering Gaussian System, Link 0=/sysapps/ubuntu-applications/gaussian-new/avx/g16//g16
 Input=irc-yb-min.in
 Output=irc-yb-min.log
 Initial command:
 /sysapps/ubuntu-applications/gaussian-new/avx/g16/l1.exe "/data/temp-scratch/selhajj1/92631/Gau-1374186.inp" -scrdir="/data/temp-scratch/selhajj1/92631/"
 Entering Link 1 = /sysapps/ubuntu-applications/gaussian-new/avx/g16/l1.exe PID=   1374188.
  
 Copyright (c) 1988,1990,1992,1993,1995,1998,2003,2009,2016,
            Gaussian, Inc.  All Rights Reserved.
  
 This is part of the Gaussian(R) 16 program.  It is based on
 the Gaussian(R) 09 system (copyright 2009, Gaussian, Inc.),
 the Gaussian(R) 03 system (copyright 2003, Gaussian, Inc.),
 the Gaussian(R) 98 system (copyright 1998, Gaussian, Inc.),
 the Gaussian(R) 94 system (copyright 1995, Gaussian, Inc.),
 the Gaussian 92(TM) system (copyright 1992, Gaussian, Inc.),
 the Gaussian 90(TM) system (copyright 1990, Gaussian, Inc.),
 the Gaussian 88(TM) system (copyright 1988, Gaussian, Inc.),
 the Gaussian 86(TM) system (copyright 1986, Carnegie Mellon
 University), and the Gaussian 82(TM) system (copyright 1983,
 Carnegie Mellon University). Gaussian is a federally registered
 trademark of Gaussian, Inc.
  
 This software contains proprietary and confidential information,
 including trade secrets, belonging to Gaussian, Inc.
  
 This software is provided under written license and may be
 used, copied, transmitted, or stored only in accord with that
 written license.
  
 The following legend is applicable only to US Government
 contracts under FAR:
  
                    RESTRICTED RIGHTS LEGEND
  
 Use, reproduction and disclosure by the US Government is
 subject to restrictions as set forth in subparagraphs (a)
 and (c) of the Commercial Computer Software - Restricted
 Rights clause in FAR 52.227-19.
  
 Gaussian, Inc.
 340 Quinnipiac St., Bldg. 40, Wallingford CT 06492
  
  
 ---------------------------------------------------------------
 Warning -- This program may not be used in any manner that
 competes with the business of Gaussian, Inc. or will provide
 assistance to any competitor of Gaussian, Inc.  The licensee
 of this program is prohibited from giving any competitor of
 Gaussian, Inc. access to this program.  By using this program,
 the user acknowledges that Gaussian, Inc. is engaged in the
 business of creating and licensing software in the field of
 computational chemistry and represents and warrants to the
 licensee that it is not a competitor of Gaussian, Inc. and that
 it will not use this program in any manner prohibited above.
 ---------------------------------------------------------------
  

 Cite this work as:
 Gaussian 16, Revision A.03,
 M. J. Frisch, G. W. Trucks, H. B. Schlegel, G. E. Scuseria, 
 M. A. Robb, J. R. Cheeseman, G. Scalmani, V. Barone, 
 G. A. Petersson, H. Nakatsuji, X. Li, M. Caricato, A. V. Marenich, 
 J. Bloino, B. G. Janesko, R. Gomperts, B. Mennucci, H. P. Hratchian, 
 J. V. Ortiz, A. F. Izmaylov, J. L. Sonnenberg, D. Williams-Young, 
 F. Ding, F. Lipparini, F. Egidi, J. Goings, B. Peng, A. Petrone, 
 T. Henderson, D. Ranasinghe, V. G. Zakrzewski, J. Gao, N. Rega, 
 G. Zheng, W. Liang, M. Hada, M. Ehara, K. Toyota, R. Fukuda, 
 J. Hasegawa, M. Ishida, T. Nakajima, Y. Honda, O. Kitao, H. Nakai, 
 T. Vreven, K. Throssell, J. A. Montgomery, Jr., J. E. Peralta, 
 F. Ogliaro, M. J. Bearpark, J. J. Heyd, E. N. Brothers, K. N. Kudin, 
 V. N. Staroverov, T. A. Keith, R. Kobayashi, J. Normand, 
 K. Raghavachari, A. P. Rendell, J. C. Burant, S. S. Iyengar, 
 J. Tomasi, M. Cossi, J. M. Millam, M. Klene, C. Adamo, R. Cammi, 
 J. W. Ochterski, R. L. Martin, K. Morokuma, O. Farkas, 
 J. B. Foresman, and D. J. Fox, Gaussian, Inc., Wallingford CT, 2016.
 
 ******************************************
 Gaussian 16:  ES64L-G16RevA.03 25-Dec-2016
                19-Mar-2025 
 ******************************************
 %chk=ts-min.chk
 %mem=616Gb
 %nprocshared=24
 Will use up to   24 processors via shared memory.
 ----------------------------------------------------------------------
 # irc=(maxpoints=100,recorrect=never,calcfc,maxcycles=500,nogradstop) 
 UMN15/genecp scrf=(smd,solvent=DiChloroEthane)
 ----------------------------------------------------------------------
 1/6=500,10=4,18=10,26=3,38=1,42=100,44=3,108=-1,131=1,172=1/1,23;
 2/12=2,17=6,18=5,29=1,40=1/2;
 3/5=7,11=2,16=1,17=8,25=1,30=1,70=32201,71=2,72=10,74=-73,116=2,140=1/1,2,3;
 4//1;
 5/5=2,38=5,53=10/2;
 8/6=4,10=90,11=11/1;
 11/6=1,8=1,9=11,15=111,16=1/1,2,10;
 10/6=1,13=1/2;
 6/7=2,8=2,9=2,10=2,28=1/1;
 7/10=1,18=20,25=1/1,2,3,16;
 1/6=500,10=4,18=10,26=3,42=100,44=3,108=-1,131=1/23(2);
 2/29=1/2;
 99/5=20/99;
 2/29=1/2;
 3/5=7,6=1,11=2,16=1,17=8,25=1,30=1,70=32205,71=2,72=10,74=-73,82=7,116=2,140=1/1,2,3;
 4/5=5,16=3,69=1/1;
 5/5=2,38=5,53=10/2;
 8/6=4,10=90,11=11/1;
 11/6=1,8=1,9=11,15=111,16=1/1,2,10;
 10/6=1,13=1/2;
 7/10=1,18=20,25=1/1,2,3,16;
 1/6=500,18=10,26=3,42=100,44=3,108=-1,131=1/23(-8);
 2/29=1/2;
 6/7=2,8=2,9=2,10=2,19=2,28=1/1;
 99/5=20,9=1/99;
 -----------------------------------------------------------
 IRC for Going from i2 to i3, where we are forming bond 7-66
 -----------------------------------------------------------
 Symbolic Z-matrix:
 Charge =  0 Multiplicity = 2
 C                     1.80374  -0.74157  -0.96972 
 C                     1.63267   0.13969   0.26077 
 C                     0.49989  -1.24906  -1.56898 
 O                    -0.44368  -0.50885  -1.76195 
 O                     0.65166   0.83483   0.43175 
 O                     2.62742   0.04877   1.09702 
 O                     0.54235  -2.50599  -1.91015 
 C                     2.60636   0.91773   2.24205 
 C                    -0.68239  -3.06341  -2.42343 
 H                     3.5452    0.73953   2.77702 
 H                     1.74425   0.66367   2.87135 
 H                     2.54154   1.96048   1.90299 
 H                    -0.47533  -4.1186   -2.62445 
 H                    -0.97502  -2.54012  -3.34246 
 H                    -1.4669   -2.94903  -1.66363 
 O                    -3.17631  -1.52456  -0.42545 
 O                    -1.47551  -0.37673   2.35299 
 O                    -1.34084   2.74813  -1.02811 
 S                    -1.79153   3.56515   0.12291 
 S                    -3.81246  -1.02876  -1.67429 
 S                    -0.5564   -1.52163   2.18225 
 O                    -2.11053   2.66765   1.26351 
 O                    -2.73454   4.62827  -0.15529 
 O                    -3.38939   0.36899  -1.92437 
 O                    -3.81769  -1.93588  -2.80457 
 O                    -0.33277  -1.81026   0.74521 
 O                     0.63976  -1.51656   3.01262 
 C                    -1.50802  -2.98008   2.76195 
 C                    -5.57387  -0.84417  -1.19187 
 C                    -0.2794    4.45019   0.67918 
 F                    -0.79355  -4.07412   2.52766 
 F                    -2.65868  -3.06713   2.12291 
 F                    -1.73228  -2.88049   4.06133 
 F                    -5.66221  -0.03685  -0.14173 
 F                    -6.08498  -2.0229   -0.87276 
 F                    -6.26781  -0.3267   -2.19263 
 F                     0.62976   3.60194   1.13387 
 F                    -0.59375   5.29907   1.64547 
 F                     0.23504   5.12913  -0.33864 
 C                     3.95414   0.06449  -1.8685 
 C                     4.73695  -1.25715  -1.54061 
 C                     6.19285  -1.06207  -1.43816 
 C                     4.50471  -2.18374  -2.67224 
 C                     2.43519  -2.96733   0.85863 
 C                     4.43394  -2.15756   1.9142 
 C                     3.18439  -2.82942   1.99807 
 H                     1.47611  -3.48451   0.84362 
 H                     5.06812  -2.01691   2.79186 
 H                     2.84685  -3.23632   2.95101 
 N                     7.34013  -0.92235  -1.44781 
 N                     4.33192  -2.89002  -3.57081 
 N                     4.19155  -1.8597   -0.30604 
 N                     4.91038  -1.68349   0.78685 
 C                     2.92654  -2.40368  -0.35333 
 H                     2.62862  -2.83728  -1.31293 
 H                     4.24027   0.32308  -2.89916 
 C                     4.13785   1.29042  -0.99686 
 C                     3.23814   2.34028  -1.24058 
 C                     5.14653   1.45675  -0.04076 
 C                     3.35389   3.54373  -0.5449 
 H                     2.44413   2.21855  -1.98288 
 C                     5.26222   2.66782   0.64644 
 H                     5.84821   0.65854   0.19881 
 C                     4.37301   3.71329   0.39548 
 H                     2.64617   4.34974  -0.74314 
 H                     6.05583   2.78666   1.38697 
 H                     4.46962   4.65761   0.93526 
 Yb                   -1.81828   0.51841   0.04954 
 O                     2.59388  -0.35276  -1.99796 
 
 IRC-IRC-IRC-IRC-IRC-IRC-IRC-IRC-IRC-IRC-IRC-IRC-IRC-IRC-IRC-IRC-IRC-IRC
 ------------------------------------------------------------------------
 INPUT DATA FOR L123
 ------------------------------------------------------------------------
 GENERAL PARAMETERS:
 Follow reaction path in both directions.
 Maximum points per path      = 100
 Step size                    =   0.100 bohr
 Integration scheme           = HPC                                 
    Redo corrector integration= Never                               
    DWI Weight Power          =  2
    DWI will use Hessian update vectors when possible.
 Initial Hessian              = CalcFC
 Hessian evaluation           = All updating
 Hessian updating method      = Bofill                              
 ------------------------------------------------------------------------
 IRC-IRC-IRC-IRC-IRC-IRC-IRC-IRC-IRC-IRC-IRC-IRC-IRC-IRC-IRC-IRC-IRC-IRC
 Symmetry turned off by external request.
 Stoichiometry    C22H16F9N4O14S3Yb(2)
 Framework group  C1[X(C22H16F9N4O14S3Yb)]
 Deg. of freedom   201
 Full point group                 C1      NOp   1
                          Input orientation:                          
 ---------------------------------------------------------------------
 Center     Atomic      Atomic             Coordinates (Angstroms)
 Number     Number       Type             X           Y           Z
 ---------------------------------------------------------------------
      1          6           0        1.803741   -0.741572   -0.969724
      2          6           0        1.632669    0.139690    0.260765
      3          6           0        0.499891   -1.249058   -1.568979
      4          8           0       -0.443683   -0.508854   -1.761945
      5          8           0        0.651662    0.834827    0.431748
      6          8           0        2.627423    0.048766    1.097020
      7          8           0        0.542354   -2.505994   -1.910148
      8          6           0        2.606363    0.917734    2.242046
      9          6           0       -0.682391   -3.063408   -2.423432
     10          1           0        3.545203    0.739531    2.777020
     11          1           0        1.744254    0.663669    2.871352
     12          1           0        2.541543    1.960482    1.902986
     13          1           0       -0.475325   -4.118595   -2.624450
     14          1           0       -0.975022   -2.540122   -3.342455
     15          1           0       -1.466900   -2.949031   -1.663630
     16          8           0       -3.176314   -1.524557   -0.425454
     17          8           0       -1.475507   -0.376730    2.352995
     18          8           0       -1.340839    2.748125   -1.028110
     19         16           0       -1.791528    3.565147    0.122914
     20         16           0       -3.812464   -1.028764   -1.674287
     21         16           0       -0.556395   -1.521627    2.182250
     22          8           0       -2.110530    2.667651    1.263510
     23          8           0       -2.734539    4.628273   -0.155292
     24          8           0       -3.389391    0.368992   -1.924372
     25          8           0       -3.817689   -1.935883   -2.804568
     26          8           0       -0.332768   -1.810258    0.745211
     27          8           0        0.639755   -1.516564    3.012625
     28          6           0       -1.508019   -2.980081    2.761946
     29          6           0       -5.573865   -0.844166   -1.191868
     30          6           0       -0.279397    4.450187    0.679183
     31          9           0       -0.793550   -4.074116    2.527655
     32          9           0       -2.658676   -3.067134    2.122906
     33          9           0       -1.732277   -2.880487    4.061325
     34          9           0       -5.662214   -0.036854   -0.141726
     35          9           0       -6.084978   -2.022899   -0.872758
     36          9           0       -6.267811   -0.326698   -2.192626
     37          9           0        0.629756    3.601935    1.133873
     38          9           0       -0.593747    5.299068    1.645467
     39          9           0        0.235040    5.129134   -0.338642
     40          6           0        3.954143    0.064492   -1.868498
     41          6           0        4.736948   -1.257150   -1.540607
     42          6           0        6.192853   -1.062066   -1.438156
     43          6           0        4.504714   -2.183737   -2.672235
     44          6           0        2.435188   -2.967325    0.858628
     45          6           0        4.433937   -2.157556    1.914196
     46          6           0        3.184394   -2.829420    1.998070
     47          1           0        1.476113   -3.484505    0.843617
     48          1           0        5.068123   -2.016907    2.791862
     49          1           0        2.846847   -3.236322    2.951013
     50          7           0        7.340128   -0.922345   -1.447805
     51          7           0        4.331916   -2.890019   -3.570812
     52          7           0        4.191552   -1.859700   -0.306041
     53          7           0        4.910378   -1.683489    0.786850
     54          6           0        2.926544   -2.403676   -0.353327
     55          1           0        2.628622   -2.837282   -1.312933
     56          1           0        4.240270    0.323077   -2.899161
     57          6           0        4.137851    1.290423   -0.996857
     58          6           0        3.238139    2.340278   -1.240584
     59          6           0        5.146526    1.456754   -0.040761
     60          6           0        3.353890    3.543733   -0.544904
     61          1           0        2.444132    2.218548   -1.982878
     62          6           0        5.262221    2.667818    0.646437
     63          1           0        5.848206    0.658538    0.198812
     64          6           0        4.373012    3.713290    0.395481
     65          1           0        2.646166    4.349739   -0.743143
     66          1           0        6.055832    2.786658    1.386969
     67          1           0        4.469624    4.657614    0.935261
     68         70           0       -1.818283    0.518411    0.049544
     69          8           0        2.593884   -0.352763   -1.997957
 ---------------------------------------------------------------------
 Rotational constants (GHZ):           0.0652118           0.0407597           0.0334418
 General basis read from cards:  (5D, 7F)
 ======================================================================================================
                                       Pseudopotential Parameters
 ======================================================================================================
  Center     Atomic      Valence      Angular      Power
  Number     Number     Electrons     Momentum     of R      Exponent        Coefficient   SO-Coeffient
 ======================================================================================================
    1          6
                                   No pseudopotential on this center.
    2          6
                                   No pseudopotential on this center.
    3          6
                                   No pseudopotential on this center.
    4          8
                                   No pseudopotential on this center.
    5          8
                                   No pseudopotential on this center.
    6          8
                                   No pseudopotential on this center.
    7          8
                                   No pseudopotential on this center.
    8          6
                                   No pseudopotential on this center.
    9          6
                                   No pseudopotential on this center.
   10          1
                                   No pseudopotential on this center.
   11          1
                                   No pseudopotential on this center.
   12          1
                                   No pseudopotential on this center.
   13          1
                                   No pseudopotential on this center.
   14          1
                                   No pseudopotential on this center.
   15          1
                                   No pseudopotential on this center.
   16          8
                                   No pseudopotential on this center.
   17          8
                                   No pseudopotential on this center.
   18          8
                                   No pseudopotential on this center.
   19         16
                                   No pseudopotential on this center.
   20         16
                                   No pseudopotential on this center.
   21         16
                                   No pseudopotential on this center.
   22          8
                                   No pseudopotential on this center.
   23          8
                                   No pseudopotential on this center.
   24          8
                                   No pseudopotential on this center.
   25          8
                                   No pseudopotential on this center.
   26          8
                                   No pseudopotential on this center.
   27          8
                                   No pseudopotential on this center.
   28          6
                                   No pseudopotential on this center.
   29          6
                                   No pseudopotential on this center.
   30          6
                                   No pseudopotential on this center.
   31          9
                                   No pseudopotential on this center.
   32          9
                                   No pseudopotential on this center.
   33          9
                                   No pseudopotential on this center.
   34          9
                                   No pseudopotential on this center.
   35          9
                                   No pseudopotential on this center.
   36          9
                                   No pseudopotential on this center.
   37          9
                                   No pseudopotential on this center.
   38          9
                                   No pseudopotential on this center.
   39          9
                                   No pseudopotential on this center.
   40          6
                                   No pseudopotential on this center.
   41          6
                                   No pseudopotential on this center.
   42          6
                                   No pseudopotential on this center.
   43          6
                                   No pseudopotential on this center.
   44          6
                                   No pseudopotential on this center.
   45          6
                                   No pseudopotential on this center.
   46          6
                                   No pseudopotential on this center.
   47          1
                                   No pseudopotential on this center.
   48          1
                                   No pseudopotential on this center.
   49          1
                                   No pseudopotential on this center.
   50          7
                                   No pseudopotential on this center.
   51          7
                                   No pseudopotential on this center.
   52          7
                                   No pseudopotential on this center.
   53          7
                                   No pseudopotential on this center.
   54          6
                                   No pseudopotential on this center.
   55          1
                                   No pseudopotential on this center.
   56          1
                                   No pseudopotential on this center.
   57          6
                                   No pseudopotential on this center.
   58          6
                                   No pseudopotential on this center.
   59          6
                                   No pseudopotential on this center.
   60          6
                                   No pseudopotential on this center.
   61          1
                                   No pseudopotential on this center.
   62          6
                                   No pseudopotential on this center.
   63          1
                                   No pseudopotential on this center.
   64          6
                                   No pseudopotential on this center.
   65          1
                                   No pseudopotential on this center.
   66          1
                                   No pseudopotential on this center.
   67          1
                                   No pseudopotential on this center.
   68         70           42
                                      H and up 
                                                     2        1.0000000        0.00000000    0.00000000
                                      S - H
                                                     2       32.4244840      891.01377700    0.00000000
                                      P - H
                                                     2       18.6562320      264.03695300    0.00000000
                                      D - H
                                                     2       10.4902220       73.92391900    0.00000000
                                      F - H
                                                     2       20.7741830      -39.59217300    0.00000000
                                      G - H
                                                     2       28.4310280      -34.63863800    0.00000000
   69          8
                                   No pseudopotential on this center.
 ======================================================================================================
   916 basis functions,  1662 primitive gaussians,   991 cartesian basis functions
   230 alpha electrons      229 beta electrons
       nuclear repulsion energy     11684.0965021825 Hartrees.
 NAtoms=   69 NActive=   69 NUniq=   69 SFac= 1.00D+00 NAtFMM=   60 NAOKFM=T Big=T
 Integral buffers will be    131072 words long.
 Raffenetti 2 integral format.
 Two-electron integral symmetry is turned off.
 Force inversion solution in PCM.
 ------------------------------------------------------------------------------
 Polarizable Continuum Model (PCM)
 =================================
 Model                : PCM.
 Atomic radii         : SMD-Coulomb.
 Polarization charges : Total charges.
 Charge compensation  : None.
 Solution method      : Matrix inversion.
 Cavity type          : VdW (van der Waals Surface) (Alpha=1.000).
 Cavity algorithm     : GePol (No added spheres)
                        Default sphere list used, NSphG=   69.
                        Lebedev-Laikov grids with approx.  5.0 points / Ang**2.
                        Smoothing algorithm: York/Karplus (Gamma=1.0000).
                        Polarization charges: spherical gaussians, with
                                              point-specific exponents (IZeta= 3).
                        Self-potential: point-specific (ISelfS= 7).
                        Self-field    : sphere-specific E.n sum rule (ISelfD= 2).
 1st derivatives      : Analytical E(r).r(x)/FMM algorithm (CHGder, D1EAlg=3).
                        Cavity 1st derivative terms included.
 2nd derivatives      : Analytical E(r).r(xy)/FMM algorithm (CHGder, D2EAlg=3).
                        Cavity 2nd derivative terms included.
 Solvent              : DiChloroEthane, Eps=  10.125000 Eps(inf)=   2.087447
 ------------------------------------------------------------------------------
 ------------------------------------------------------------------------------
 Atomic radii for non-electrostatic terms: SMD-CDS.
 ------------------------------------------------------------------------------
 Nuclear repulsion after PCM non-electrostatic terms =    11684.1036628637 Hartrees.
 One-electron integrals computed using PRISM.
   1 Symmetry operations used in ECPInt.
 ECPInt:  NShTT=   77815 NPrTT=  297642 LenC2=   61058 LenP2D=  142597.
 LDataN:  DoStor=T MaxTD1= 9 Len=  602
 NBasis=   916 RedAO= T EigKep=  2.10D-04  NBF=   916
 NBsUse=   916 1.00D-06 EigRej= -1.00D+00 NBFU=   916
 Defaulting to unpruned grid for atomic number  70.
 ExpMin= 2.50D-02 ExpMax= 9.20D+04 ExpMxC= 1.38D+04 IAcc=3 IRadAn=         5 AccDes= 0.00D+00
 Harris functional with IExCor= 1009 and IRadAn=       5 diagonalized for initial guess.
 HarFok:  IExCor= 1009 AccDes= 0.00D+00 IRadAn=         5 IDoV= 1 UseB2=F ITyADJ=14
 ICtDFT=  3500011 ScaDFX=  1.000000  1.000000  1.000000  1.000000
 Defaulting to unpruned grid for atomic number  70.
 FoFCou: FMM=F IPFlag=           0 FMFlag=      100000 FMFlg1=        2001
         NFxFlg=           0 DoJE=T BraDBF=F KetDBF=T FulRan=T
         wScrn=  0.000000 ICntrl=       500 IOpCl=  0 I1Cent=   200000004 NGrid=           0
         NMat0=    1 NMatS0=      1 NMatT0=    0 NMatD0=    1 NMtDS0=    0 NMtDT0=    0
 Symmetry not used in FoFCou.
 Initial guess <Sx>= 0.0000 <Sy>= 0.0000 <Sz>= 0.5000 <S**2>= 0.7500 S= 0.5000
 Requested convergence on RMS density matrix=1.00D-08 within 128 cycles.
 Requested convergence on MAX density matrix=1.00D-06.
 Requested convergence on             energy=1.00D-06.
 No special actions if energy rises.
 Defaulting to unpruned grid for atomic number  70.
 Defaulting to unpruned grid for atomic number  70.
 Defaulting to unpruned grid for atomic number  70.
 Defaulting to unpruned grid for atomic number  70.
 Defaulting to unpruned grid for atomic number  70.
 Defaulting to unpruned grid for atomic number  70.
 Defaulting to unpruned grid for atomic number  70.
 Defaulting to unpruned grid for atomic number  70.
 Defaulting to unpruned grid for atomic number  70.
 Defaulting to unpruned grid for atomic number  70.
 Defaulting to unpruned grid for atomic number  70.
 Defaulting to unpruned grid for atomic number  70.
 Defaulting to unpruned grid for atomic number  70.
 Defaulting to unpruned grid for atomic number  70.
 Defaulting to unpruned grid for atomic number  70.
 Defaulting to unpruned grid for atomic number  70.
 Defaulting to unpruned grid for atomic number  70.
 Defaulting to unpruned grid for atomic number  70.
 Defaulting to unpruned grid for atomic number  70.
 Defaulting to unpruned grid for atomic number  70.
 Defaulting to unpruned grid for atomic number  70.
 Defaulting to unpruned grid for atomic number  70.
 Defaulting to unpruned grid for atomic number  70.
 Defaulting to unpruned grid for atomic number  70.
 Inv3:  Mode=1 IEnd=    67801548.
 Iteration    1 A*A^-1 deviation from unit magnitude is 6.44D-15 for   4753.
 Iteration    1 A*A^-1 deviation from orthogonality  is 2.88D-15 for   4406   4302.
 Iteration    1 A^-1*A deviation from unit magnitude is 6.22D-15 for   4753.
 Iteration    1 A^-1*A deviation from orthogonality  is 1.91D-15 for   4257   4185.
 EnCoef did     4 forward-backward iterations
 EnCoef did   100 forward-backward iterations
 EnCoef did     6 forward-backward iterations
 Restarting incremental Fock formation.
 Error on total polarization charges =  0.02764
 SCF Done:  E(UMN15) =  -5368.76361486     A.U. after   23 cycles
            NFock= 23  Conv=0.40D-08     -V/T= 2.0908
 <Sx>= 0.0000 <Sy>= 0.0000 <Sz>= 0.5000 <S**2>= 0.7617 S= 0.5058
 <L.S>=  0.00000000000    
 SMD-CDS (non-electrostatic) energy       (kcal/mol) =       4.49
 (included in total energy above)
 Annihilation of the first spin contaminant:
 S**2 before annihilation     0.7617,   after     0.7501
 DoSCS=F DFT=T ScalE2(SS,OS)=  1.000000  1.000000
 Range of M.O.s used for correlation:     1   916
 NBasis=   916 NAE=   230 NBE=   229 NFC=     0 NFV=     0
 NROrb=    916 NOA=   230 NOB=   229 NVA=   686 NVB=   687

 **** Warning!!: The largest alpha MO coefficient is  0.12745810D+02


 **** Warning!!: The largest beta MO coefficient is  0.12745810D+02

   1 Symmetry operations used in ECPInt.
 ECPInt:  NShTT=   77815 NPrTT=  297642 LenC2=   61058 LenP2D=  142597.
 LDataN:  DoStor=T MaxTD1=10 Len=  848
 Symmetrizing basis deriv contribution to polar:
 IMax=3 JMax=2 DiffMx= 0.00D+00
 G2DrvN: will do    70 centers at a time, making    1 passes.
 Calling FoFCou, ICntrl=  3107 FMM=T I1Cent=   0 AccDes= 0.00D+00.
 Defaulting to unpruned grid for atomic number  70.
 Defaulting to unpruned grid for atomic number  70.
 Defaulting to unpruned grid for atomic number  70.
 Defaulting to unpruned grid for atomic number  70.
 Defaulting to unpruned grid for atomic number  70.
 Defaulting to unpruned grid for atomic number  70.
 Defaulting to unpruned grid for atomic number  70.
 Defaulting to unpruned grid for atomic number  70.
 Defaulting to unpruned grid for atomic number  70.
 Defaulting to unpruned grid for atomic number  70.
 Defaulting to unpruned grid for atomic number  70.
 Defaulting to unpruned grid for atomic number  70.
 Defaulting to unpruned grid for atomic number  70.
 Defaulting to unpruned grid for atomic number  70.
 Defaulting to unpruned grid for atomic number  70.
 Defaulting to unpruned grid for atomic number  70.
 Defaulting to unpruned grid for atomic number  70.
 Defaulting to unpruned grid for atomic number  70.
 Defaulting to unpruned grid for atomic number  70.
 Defaulting to unpruned grid for atomic number  70.
 Defaulting to unpruned grid for atomic number  70.
 Defaulting to unpruned grid for atomic number  70.
 Defaulting to unpruned grid for atomic number  70.
 Defaulting to unpruned grid for atomic number  70.
 NEqPCM:  Using equilibrium solvation (IEInf=0, Eps=  10.1250, EpsInf=   2.0874)
 G2PCM: DoFxE=T DoFxN=T DoGrad=T DoDP/DQ/DG/TGxP=FFFF NFrqRd=   0 IEInf=0 SqF1=F DoCFld=F IF1Alg=4.
 End of G2Drv F.D. properties file   721 does not exist.
 End of G2Drv F.D. properties file   722 does not exist.
 End of G2Drv F.D. properties file   788 does not exist.
          IDoAtm=11111111111111111111111111111111111111111111111111
          IDoAtm=1111111111111111111
 NEqPCM:  Using equilibrium solvation (IEInf=0, Eps=  10.1250, EpsInf=   2.0874)
          Differentiating once with respect to nuclear coordinates.
 Defaulting to unpruned grid for atomic number  70.
 CalDSu exits because no D1Ps are significant.
 Defaulting to unpruned grid for atomic number  70.
 Defaulting to unpruned grid for atomic number  70.
 Defaulting to unpruned grid for atomic number  70.
 Defaulting to unpruned grid for atomic number  70.
 Defaulting to unpruned grid for atomic number  70.
 Defaulting to unpruned grid for atomic number  70.
 Defaulting to unpruned grid for atomic number  70.
 Defaulting to unpruned grid for atomic number  70.
 Defaulting to unpruned grid for atomic number  70.
 Defaulting to unpruned grid for atomic number  70.
 Defaulting to unpruned grid for atomic number  70.
 Defaulting to unpruned grid for atomic number  70.
 Defaulting to unpruned grid for atomic number  70.
 Defaulting to unpruned grid for atomic number  70.
 Defaulting to unpruned grid for atomic number  70.
 Defaulting to unpruned grid for atomic number  70.
 Defaulting to unpruned grid for atomic number  70.
 Defaulting to unpruned grid for atomic number  70.
 Defaulting to unpruned grid for atomic number  70.
 Defaulting to unpruned grid for atomic number  70.
 Defaulting to unpruned grid for atomic number  70.
 Defaulting to unpruned grid for atomic number  70.
 Defaulting to unpruned grid for atomic number  70.
 Defaulting to unpruned grid for atomic number  70.
          There are   210 degrees of freedom in the 1st order CPHF.  IDoFFX=6 NUNeed=     0.
    207 vectors produced by pass  0 Test12= 3.15D-13 1.00D-09 XBig12= 3.61D-01 1.38D-01.
 AX will form    72 AO Fock derivatives at one time.
    204 vectors produced by pass  1 Test12= 3.15D-13 1.00D-09 XBig12= 1.54D-01 4.33D-02.
    204 vectors produced by pass  2 Test12= 3.15D-13 1.00D-09 XBig12= 2.97D-03 5.54D-03.
    204 vectors produced by pass  3 Test12= 3.15D-13 1.00D-09 XBig12= 4.93D-05 8.22D-04.
    204 vectors produced by pass  4 Test12= 3.15D-13 1.00D-09 XBig12= 6.55D-07 1.14D-04.
    204 vectors produced by pass  5 Test12= 3.15D-13 1.00D-09 XBig12= 6.57D-09 1.06D-05.
    200 vectors produced by pass  6 Test12= 3.15D-13 1.00D-09 XBig12= 5.90D-11 6.67D-07.
    122 vectors produced by pass  7 Test12= 3.15D-13 1.00D-09 XBig12= 5.35D-13 9.08D-08.
     37 vectors produced by pass  8 Test12= 3.15D-13 1.00D-09 XBig12= 6.80D-15 5.93D-09.
      5 vectors produced by pass  9 Test12= 3.15D-13 1.00D-09 XBig12= 2.70D-15 2.72D-09.
      1 vectors produced by pass 10 Test12= 3.15D-13 1.00D-09 XBig12= 1.46D-15 1.60D-09.
 InvSVY:  IOpt=1 It=  1 EMax= 9.99D-16
 Solved reduced A of dimension  1592 with   210 vectors.
 End of Minotr F.D. properties file   721 does not exist.
 End of Minotr F.D. properties file   722 does not exist.
 End of Minotr F.D. properties file   788 does not exist.

 **********************************************************************

            Population analysis using the SCF density.

 **********************************************************************

 Alpha  occ. eigenvalues --  -88.04641 -88.03478 -88.03419 -24.33429 -24.33238
 Alpha  occ. eigenvalues --  -24.33175 -24.32876 -24.32867 -24.32796 -24.32675
 Alpha  occ. eigenvalues --  -24.32628 -24.32605 -18.92898 -18.90835 -18.90454
 Alpha  occ. eigenvalues --  -18.86162 -18.85452 -18.82595 -18.82566 -18.81939
 Alpha  occ. eigenvalues --  -18.81518 -18.81483 -18.81352 -18.81332 -18.80836
 Alpha  occ. eigenvalues --  -18.80524 -16.28637 -14.28250 -14.20984 -14.15996
 Alpha  occ. eigenvalues --  -14.15668 -10.92022 -10.91981 -10.91948 -10.32298
 Alpha  occ. eigenvalues --  -10.31556 -10.31412 -10.24707 -10.24207 -10.24175
 Alpha  occ. eigenvalues --  -10.21046 -10.19351 -10.18576 -10.15070 -10.15056
 Alpha  occ. eigenvalues --  -10.14962 -10.12889 -10.12202 -10.11838 -10.11366
 Alpha  occ. eigenvalues --  -10.09572 -10.07693 -10.07581 -10.06959 -10.06906
 Alpha  occ. eigenvalues --  -10.06820  -7.94357  -7.93240  -7.93189  -6.13864
 Alpha  occ. eigenvalues --   -6.13827  -6.13769  -6.12738  -6.12711  -6.12688
 Alpha  occ. eigenvalues --   -6.12664  -6.12655  -6.12600  -5.00303  -5.00286
 Alpha  occ. eigenvalues --   -5.00250  -5.00218  -5.00196  -1.95844  -1.36954
 Alpha  occ. eigenvalues --   -1.36397  -1.36260  -1.26938  -1.26925  -1.26408
 Alpha  occ. eigenvalues --   -1.26329  -1.26264  -1.26261  -1.20795  -1.19087
 Alpha  occ. eigenvalues --   -1.18627  -1.18083  -1.17655  -1.17525  -1.16528
 Alpha  occ. eigenvalues --   -1.10341  -1.09173  -1.05319  -1.04933  -1.04289
 Alpha  occ. eigenvalues --   -1.04233  -1.03270  -1.02959  -1.01296  -1.00783
 Alpha  occ. eigenvalues --   -1.00058  -0.99977  -0.98420  -0.97180  -0.93813
 Alpha  occ. eigenvalues --   -0.91770  -0.89643  -0.86108  -0.82894  -0.80907
 Alpha  occ. eigenvalues --   -0.79660  -0.79084  -0.78844  -0.78295  -0.78213
 Alpha  occ. eigenvalues --   -0.77814  -0.75732  -0.73349  -0.71154  -0.70466
 Alpha  occ. eigenvalues --   -0.70371  -0.68804  -0.68213  -0.67107  -0.66966
 Alpha  occ. eigenvalues --   -0.66857  -0.66484  -0.66359  -0.66294  -0.66273
 Alpha  occ. eigenvalues --   -0.66238  -0.65040  -0.63912  -0.63120  -0.62920
 Alpha  occ. eigenvalues --   -0.61831  -0.60989  -0.59982  -0.59545  -0.59313
 Alpha  occ. eigenvalues --   -0.58654  -0.58154  -0.57676  -0.57281  -0.56750
 Alpha  occ. eigenvalues --   -0.56292  -0.56187  -0.55201  -0.54927  -0.54690
 Alpha  occ. eigenvalues --   -0.54513  -0.54443  -0.54413  -0.54367  -0.53341
 Alpha  occ. eigenvalues --   -0.53209  -0.52916  -0.52741  -0.52530  -0.52391
 Alpha  occ. eigenvalues --   -0.51953  -0.51931  -0.51727  -0.51646  -0.51555
 Alpha  occ. eigenvalues --   -0.50833  -0.50815  -0.50631  -0.50389  -0.50164
 Alpha  occ. eigenvalues --   -0.50070  -0.49994  -0.49956  -0.49892  -0.49066
 Alpha  occ. eigenvalues --   -0.48434  -0.48154  -0.48004  -0.47866  -0.47510
 Alpha  occ. eigenvalues --   -0.47268  -0.47178  -0.46292  -0.46080  -0.45928
 Alpha  occ. eigenvalues --   -0.44990  -0.44215  -0.43974  -0.43713  -0.43518
 Alpha  occ. eigenvalues --   -0.43082  -0.42562  -0.42383  -0.42185  -0.42061
 Alpha  occ. eigenvalues --   -0.41675  -0.41547  -0.41340  -0.40356  -0.40195
 Alpha  occ. eigenvalues --   -0.39966  -0.39758  -0.39636  -0.39145  -0.38825
 Alpha  occ. eigenvalues --   -0.38537  -0.38270  -0.38009  -0.37801  -0.37255
 Alpha  occ. eigenvalues --   -0.37186  -0.37018  -0.36992  -0.36569  -0.35831
 Alpha  occ. eigenvalues --   -0.35291  -0.34903  -0.34035  -0.33327  -0.33086
 Alpha  occ. eigenvalues --   -0.30605  -0.30457  -0.27768  -0.26930  -0.26908
 Alpha  occ. eigenvalues --   -0.26830  -0.26822  -0.26785  -0.26724  -0.26651
 Alpha virt. eigenvalues --   -0.09203  -0.06109  -0.03140  -0.02260  -0.01427
 Alpha virt. eigenvalues --   -0.00427  -0.00200   0.00917   0.03441   0.05200
 Alpha virt. eigenvalues --    0.06230   0.07166   0.08210   0.08870   0.08916
 Alpha virt. eigenvalues --    0.09574   0.10420   0.10801   0.10862   0.11035
 Alpha virt. eigenvalues --    0.11526   0.11607   0.11962   0.12258   0.12363
 Alpha virt. eigenvalues --    0.12611   0.12784   0.12946   0.13082   0.13809
 Alpha virt. eigenvalues --    0.13862   0.14408   0.15009   0.15084   0.15448
 Alpha virt. eigenvalues --    0.15602   0.16166   0.16264   0.16440   0.16618
 Alpha virt. eigenvalues --    0.16975   0.17496   0.17857   0.18063   0.18404
 Alpha virt. eigenvalues --    0.18858   0.18984   0.19752   0.20040   0.20522
 Alpha virt. eigenvalues --    0.20633   0.20779   0.21365   0.21632   0.21744
 Alpha virt. eigenvalues --    0.22550   0.23204   0.23637   0.24060   0.24419
 Alpha virt. eigenvalues --    0.24846   0.25266   0.26183   0.26336   0.26431
 Alpha virt. eigenvalues --    0.26804   0.26967   0.27159   0.27581   0.27674
 Alpha virt. eigenvalues --    0.28193   0.28466   0.28599   0.28883   0.29016
 Alpha virt. eigenvalues --    0.29665   0.29973   0.30789   0.30865   0.31164
 Alpha virt. eigenvalues --    0.32521   0.33521   0.34374   0.34824   0.35931
 Alpha virt. eigenvalues --    0.36407   0.37258   0.37640   0.38316   0.39253
 Alpha virt. eigenvalues --    0.39428   0.40563   0.40944   0.41200   0.41747
 Alpha virt. eigenvalues --    0.42254   0.42886   0.43334   0.43475   0.44159
 Alpha virt. eigenvalues --    0.44498   0.44588   0.45068   0.45626   0.46281
 Alpha virt. eigenvalues --    0.46314   0.46580   0.47217   0.47519   0.47808
 Alpha virt. eigenvalues --    0.48526   0.48610   0.48747   0.49223   0.49468
 Alpha virt. eigenvalues --    0.49594   0.49797   0.50868   0.50953   0.51209
 Alpha virt. eigenvalues --    0.51794   0.52252   0.52405   0.52829   0.53201
 Alpha virt. eigenvalues --    0.53950   0.54520   0.54570   0.55132   0.55756
 Alpha virt. eigenvalues --    0.56629   0.57377   0.57579   0.57948   0.58428
 Alpha virt. eigenvalues --    0.58750   0.59232   0.59498   0.59905   0.60082
 Alpha virt. eigenvalues --    0.60479   0.60896   0.61382   0.61553   0.62474
 Alpha virt. eigenvalues --    0.62637   0.63260   0.63793   0.64237   0.64627
 Alpha virt. eigenvalues --    0.65299   0.65896   0.66117   0.66286   0.66726
 Alpha virt. eigenvalues --    0.66969   0.67219   0.67335   0.67525   0.68200
 Alpha virt. eigenvalues --    0.68539   0.68920   0.69005   0.69382   0.69665
 Alpha virt. eigenvalues --    0.69962   0.70297   0.70385   0.70728   0.70852
 Alpha virt. eigenvalues --    0.71203   0.71673   0.71884   0.72147   0.72251
 Alpha virt. eigenvalues --    0.72678   0.73183   0.73767   0.74016   0.74484
 Alpha virt. eigenvalues --    0.74649   0.75077   0.75288   0.75609   0.76403
 Alpha virt. eigenvalues --    0.76963   0.77139   0.77971   0.78373   0.78858
 Alpha virt. eigenvalues --    0.79153   0.79578   0.79906   0.80391   0.80795
 Alpha virt. eigenvalues --    0.81508   0.81992   0.82940   0.83132   0.84050
 Alpha virt. eigenvalues --    0.84646   0.84729   0.85943   0.86339   0.86590
 Alpha virt. eigenvalues --    0.87535   0.88141   0.89455   0.89550   0.90109
 Alpha virt. eigenvalues --    0.90415   0.90726   0.91314   0.91598   0.91739
 Alpha virt. eigenvalues --    0.92567   0.93004   0.94021   0.94860   0.95210
 Alpha virt. eigenvalues --    0.95799   0.96201   0.97196   0.97615   0.98334
 Alpha virt. eigenvalues --    0.98835   0.99629   1.00479   1.01000   1.01782
 Alpha virt. eigenvalues --    1.02277   1.02462   1.03075   1.03820   1.04278
 Alpha virt. eigenvalues --    1.05007   1.05413   1.06181   1.06882   1.07427
 Alpha virt. eigenvalues --    1.07770   1.08005   1.08490   1.08949   1.09708
 Alpha virt. eigenvalues --    1.10087   1.10309   1.10422   1.10588   1.10913
 Alpha virt. eigenvalues --    1.11363   1.11893   1.12477   1.13218   1.13363
 Alpha virt. eigenvalues --    1.13622   1.14092   1.14403   1.14578   1.15467
 Alpha virt. eigenvalues --    1.16003   1.16417   1.16904   1.17137   1.17711
 Alpha virt. eigenvalues --    1.18045   1.18160   1.18636   1.19126   1.19671
 Alpha virt. eigenvalues --    1.19950   1.20514   1.20720   1.21299   1.22001
 Alpha virt. eigenvalues --    1.22145   1.22294   1.22578   1.23187   1.23375
 Alpha virt. eigenvalues --    1.24281   1.24665   1.25075   1.25237   1.26115
 Alpha virt. eigenvalues --    1.26749   1.27685   1.27874   1.28252   1.28908
 Alpha virt. eigenvalues --    1.29423   1.29607   1.30018   1.30318   1.30816
 Alpha virt. eigenvalues --    1.30889   1.31964   1.32397   1.32909   1.33612
 Alpha virt. eigenvalues --    1.33862   1.34252   1.34906   1.35368   1.36413
 Alpha virt. eigenvalues --    1.36652   1.37301   1.37840   1.38186   1.38750
 Alpha virt. eigenvalues --    1.38985   1.39263   1.40316   1.41049   1.41882
 Alpha virt. eigenvalues --    1.42517   1.43022   1.43183   1.43248   1.43643
 Alpha virt. eigenvalues --    1.43983   1.44440   1.45148   1.45368   1.45756
 Alpha virt. eigenvalues --    1.46351   1.46720   1.47761   1.48394   1.48791
 Alpha virt. eigenvalues --    1.49353   1.49457   1.50618   1.50837   1.52478
 Alpha virt. eigenvalues --    1.52658   1.53369   1.53675   1.54105   1.55715
 Alpha virt. eigenvalues --    1.55818   1.56604   1.56803   1.57922   1.58130
 Alpha virt. eigenvalues --    1.58378   1.58417   1.58822   1.59056   1.59249
 Alpha virt. eigenvalues --    1.60084   1.60427   1.61201   1.61363   1.62906
 Alpha virt. eigenvalues --    1.63172   1.63491   1.64495   1.65123   1.65602
 Alpha virt. eigenvalues --    1.66449   1.67236   1.67756   1.68224   1.68529
 Alpha virt. eigenvalues --    1.69279   1.70046   1.70265   1.70613   1.71002
 Alpha virt. eigenvalues --    1.71378   1.71915   1.72031   1.73370   1.73612
 Alpha virt. eigenvalues --    1.73946   1.74330   1.74616   1.75216   1.75646
 Alpha virt. eigenvalues --    1.76026   1.76491   1.76822   1.77397   1.78370
 Alpha virt. eigenvalues --    1.78632   1.79771   1.80253   1.80791   1.81090
 Alpha virt. eigenvalues --    1.83150   1.83298   1.83637   1.84840   1.84999
 Alpha virt. eigenvalues --    1.85284   1.85706   1.86764   1.87707   1.88031
 Alpha virt. eigenvalues --    1.88981   1.89162   1.89470   1.89568   1.89776
 Alpha virt. eigenvalues --    1.90065   1.90281   1.90533   1.91025   1.91230
 Alpha virt. eigenvalues --    1.91456   1.91851   1.92246   1.92376   1.92836
 Alpha virt. eigenvalues --    1.93695   1.94234   1.94747   1.95365   1.95677
 Alpha virt. eigenvalues --    1.96595   1.96797   1.97179   1.98072   1.98591
 Alpha virt. eigenvalues --    1.99136   1.99210   1.99345   2.00103   2.00456
 Alpha virt. eigenvalues --    2.01216   2.01514   2.02031   2.02163   2.02507
 Alpha virt. eigenvalues --    2.02977   2.03300   2.04416   2.05005   2.05483
 Alpha virt. eigenvalues --    2.05928   2.06198   2.07026   2.07905   2.08177
 Alpha virt. eigenvalues --    2.09366   2.10078   2.10463   2.10918   2.11296
 Alpha virt. eigenvalues --    2.11965   2.12040   2.13072   2.13304   2.13736
 Alpha virt. eigenvalues --    2.14823   2.15201   2.15843   2.16060   2.16464
 Alpha virt. eigenvalues --    2.17188   2.17710   2.18345   2.19225   2.19405
 Alpha virt. eigenvalues --    2.20034   2.21555   2.21818   2.22299   2.23025
 Alpha virt. eigenvalues --    2.23444   2.23735   2.24271   2.24896   2.25949
 Alpha virt. eigenvalues --    2.27207   2.27928   2.28647   2.29036   2.29659
 Alpha virt. eigenvalues --    2.30285   2.31491   2.32050   2.32222   2.32933
 Alpha virt. eigenvalues --    2.33442   2.34615   2.35856   2.37876   2.38407
 Alpha virt. eigenvalues --    2.39678   2.41682   2.43311   2.43909   2.48200
 Alpha virt. eigenvalues --    2.50030   2.50690   2.51796   2.55641   2.56201
 Alpha virt. eigenvalues --    2.56308   2.56500   2.56708   2.57982   2.59090
 Alpha virt. eigenvalues --    2.60814   2.61370   2.61473   2.61958   2.62360
 Alpha virt. eigenvalues --    2.62476   2.62755   2.63229   2.63934   2.64520
 Alpha virt. eigenvalues --    2.64985   2.65190   2.65391   2.65640   2.65910
 Alpha virt. eigenvalues --    2.66405   2.66699   2.67245   2.67411   2.68005
 Alpha virt. eigenvalues --    2.69208   2.70027   2.70237   2.70344   2.70667
 Alpha virt. eigenvalues --    2.71895   2.72049   2.72981   2.73269   2.73598
 Alpha virt. eigenvalues --    2.74316   2.74578   2.75370   2.75833   2.76158
 Alpha virt. eigenvalues --    2.77374   2.77545   2.77761   2.78378   2.78744
 Alpha virt. eigenvalues --    2.80018   2.80348   2.80535   2.80712   2.81453
 Alpha virt. eigenvalues --    2.81893   2.82196   2.83045   2.83453   2.84102
 Alpha virt. eigenvalues --    2.85812   2.86323   2.86700   2.86948   2.87544
 Alpha virt. eigenvalues --    2.89085   2.91484   2.91586   2.92820   2.94009
 Alpha virt. eigenvalues --    2.94564   2.95220   2.95930   2.96516   2.97292
 Alpha virt. eigenvalues --    2.97747   2.97797   2.97942   2.98331   2.98528
 Alpha virt. eigenvalues --    2.98893   2.99251   2.99486   2.99493   3.00705
 Alpha virt. eigenvalues --    3.01132   3.01967   3.02983   3.03308   3.03684
 Alpha virt. eigenvalues --    3.03810   3.03813   3.03969   3.04178   3.04276
 Alpha virt. eigenvalues --    3.04326   3.04396   3.04462   3.04667   3.04805
 Alpha virt. eigenvalues --    3.04862   3.04983   3.05165   3.05505   3.06103
 Alpha virt. eigenvalues --    3.06984   3.07034   3.07315   3.09623   3.10890
 Alpha virt. eigenvalues --    3.11471   3.12287   3.13036   3.15545   3.15682
 Alpha virt. eigenvalues --    3.15800   3.15953   3.16022   3.16197   3.16652
 Alpha virt. eigenvalues --    3.17511   3.19733   3.20959   3.23155   3.25484
 Alpha virt. eigenvalues --    3.26604   3.27091   3.31532   3.31993   3.33171
 Alpha virt. eigenvalues --    3.36193   3.37048   3.38082   3.38751   3.39382
 Alpha virt. eigenvalues --    3.39419   3.39624   3.40169   3.40798   3.41129
 Alpha virt. eigenvalues --    3.41411   3.41872   3.42795   3.45944   3.50353
 Alpha virt. eigenvalues --    3.51651   3.52146   3.52212   3.52353   3.52545
 Alpha virt. eigenvalues --    3.52801   3.53221   3.54179   3.56109   3.58725
 Alpha virt. eigenvalues --    3.63108   3.65583   3.66918   3.67142   3.67374
 Alpha virt. eigenvalues --    3.68373   3.69268   3.82342   3.82525   3.82685
 Alpha virt. eigenvalues --    3.83151   3.83527   3.84238   6.46174   6.49766
 Alpha virt. eigenvalues --    6.53052   6.55541   6.56609   7.92303   7.93500
 Alpha virt. eigenvalues --    7.96319   7.98283   8.00112   8.01224   8.05427
 Alpha virt. eigenvalues --    9.65260  13.96172  13.99671  14.01916  24.89841
 Alpha virt. eigenvalues --   84.95030  92.00834  92.10952  92.16641 314.02478
 Alpha virt. eigenvalues --  713.77647
  Beta  occ. eigenvalues --  -88.04640 -88.03478 -88.03419 -24.33429 -24.33238
  Beta  occ. eigenvalues --  -24.33175 -24.32876 -24.32867 -24.32796 -24.32675
  Beta  occ. eigenvalues --  -24.32628 -24.32605 -18.92639 -18.90825 -18.90442
  Beta  occ. eigenvalues --  -18.86073 -18.85394 -18.82595 -18.82564 -18.81933
  Beta  occ. eigenvalues --  -18.81517 -18.81482 -18.81352 -18.81332 -18.80836
  Beta  occ. eigenvalues --  -18.80524 -16.28636 -14.27936 -14.20943 -14.15995
  Beta  occ. eigenvalues --  -14.15667 -10.92021 -10.91979 -10.91946 -10.32298
  Beta  occ. eigenvalues --  -10.31556 -10.31412 -10.24723 -10.24235 -10.24169
  Beta  occ. eigenvalues --  -10.20599 -10.19336 -10.18639 -10.15067 -10.15050
  Beta  occ. eigenvalues --  -10.14915 -10.12822 -10.12188 -10.11837 -10.11366
  Beta  occ. eigenvalues --  -10.09570 -10.07693 -10.07580 -10.06959 -10.06906
  Beta  occ. eigenvalues --  -10.06821  -7.94357  -7.93240  -7.93189  -6.13864
  Beta  occ. eigenvalues --   -6.13827  -6.13769  -6.12738  -6.12711  -6.12688
  Beta  occ. eigenvalues --   -6.12664  -6.12655  -6.12600  -5.00299  -5.00284
  Beta  occ. eigenvalues --   -5.00248  -5.00215  -5.00194  -1.95844  -1.36954
  Beta  occ. eigenvalues --   -1.36397  -1.36259  -1.26938  -1.26925  -1.26408
  Beta  occ. eigenvalues --   -1.26329  -1.26264  -1.26261  -1.20474  -1.19019
  Beta  occ. eigenvalues --   -1.18579  -1.17708  -1.17652  -1.17523  -1.15911
  Beta  occ. eigenvalues --   -1.10216  -1.09067  -1.05312  -1.04931  -1.04286
  Beta  occ. eigenvalues --   -1.04232  -1.03268  -1.02958  -1.01134  -1.00778
  Beta  occ. eigenvalues --   -1.00056  -0.99976  -0.98408  -0.96893  -0.93499
  Beta  occ. eigenvalues --   -0.91652  -0.89268  -0.85396  -0.82684  -0.80797
  Beta  occ. eigenvalues --   -0.79652  -0.79077  -0.78491  -0.78291  -0.78207
  Beta  occ. eigenvalues --   -0.77571  -0.75514  -0.72894  -0.71148  -0.70465
  Beta  occ. eigenvalues --   -0.70371  -0.68460  -0.67918  -0.66968  -0.66870
  Beta  occ. eigenvalues --   -0.66841  -0.66472  -0.66357  -0.66285  -0.66239
  Beta  occ. eigenvalues --   -0.65938  -0.64841  -0.63602  -0.63041  -0.62740
  Beta  occ. eigenvalues --   -0.61335  -0.60926  -0.59759  -0.59537  -0.59309
  Beta  occ. eigenvalues --   -0.58323  -0.58029  -0.57559  -0.57175  -0.56664
  Beta  occ. eigenvalues --   -0.56062  -0.55647  -0.55149  -0.54912  -0.54686
  Beta  occ. eigenvalues --   -0.54512  -0.54422  -0.54377  -0.54244  -0.53205
  Beta  occ. eigenvalues --   -0.53032  -0.52858  -0.52727  -0.52485  -0.52367
  Beta  occ. eigenvalues --   -0.51948  -0.51926  -0.51699  -0.51628  -0.51117
  Beta  occ. eigenvalues --   -0.50807  -0.50633  -0.50260  -0.50183  -0.50152
  Beta  occ. eigenvalues --   -0.50040  -0.49957  -0.49839  -0.49747  -0.48705
  Beta  occ. eigenvalues --   -0.48434  -0.48024  -0.47962  -0.47866  -0.47412
  Beta  occ. eigenvalues --   -0.47110  -0.46934  -0.46253  -0.45995  -0.45895
  Beta  occ. eigenvalues --   -0.44815  -0.44031  -0.43860  -0.43534  -0.43314
  Beta  occ. eigenvalues --   -0.42982  -0.42440  -0.42238  -0.42054  -0.41954
  Beta  occ. eigenvalues --   -0.41599  -0.41386  -0.40863  -0.40281  -0.39963
  Beta  occ. eigenvalues --   -0.39721  -0.39583  -0.39086  -0.38858  -0.38571
  Beta  occ. eigenvalues --   -0.38433  -0.37991  -0.37838  -0.37391  -0.37214
  Beta  occ. eigenvalues --   -0.37151  -0.36990  -0.36979  -0.36027  -0.35721
  Beta  occ. eigenvalues --   -0.35276  -0.34850  -0.33999  -0.33326  -0.33080
  Beta  occ. eigenvalues --   -0.30597  -0.30420  -0.26933  -0.26905  -0.26837
  Beta  occ. eigenvalues --   -0.26824  -0.26778  -0.26724  -0.26652
  Beta virt. eigenvalues --   -0.15243  -0.07817  -0.05252  -0.03051  -0.02024
  Beta virt. eigenvalues --   -0.00872  -0.00381   0.00392   0.01091   0.03570
  Beta virt. eigenvalues --    0.05296   0.06244   0.07295   0.08279   0.08925
  Beta virt. eigenvalues --    0.09010   0.09885   0.10545   0.10807   0.10953
  Beta virt. eigenvalues --    0.11045   0.11558   0.11627   0.11969   0.12259
  Beta virt. eigenvalues --    0.12391   0.12691   0.12792   0.12961   0.13104
  Beta virt. eigenvalues --    0.13863   0.14038   0.14471   0.15050   0.15117
  Beta virt. eigenvalues --    0.15458   0.15636   0.16191   0.16267   0.16485
  Beta virt. eigenvalues --    0.16663   0.17033   0.17532   0.17869   0.18089
  Beta virt. eigenvalues --    0.18414   0.18869   0.19035   0.19815   0.20152
  Beta virt. eigenvalues --    0.20565   0.20649   0.20821   0.21442   0.21649
  Beta virt. eigenvalues --    0.21785   0.22559   0.23256   0.23673   0.24106
  Beta virt. eigenvalues --    0.24458   0.25003   0.25367   0.26171   0.26294
  Beta virt. eigenvalues --    0.26559   0.26832   0.26982   0.27167   0.27585
  Beta virt. eigenvalues --    0.27709   0.28241   0.28521   0.28682   0.28884
  Beta virt. eigenvalues --    0.29026   0.29701   0.30023   0.30793   0.30911
  Beta virt. eigenvalues --    0.31387   0.32557   0.33585   0.34406   0.34953
  Beta virt. eigenvalues --    0.35980   0.36440   0.37338   0.37694   0.38453
  Beta virt. eigenvalues --    0.39288   0.39512   0.40609   0.41073   0.41223
  Beta virt. eigenvalues --    0.41760   0.42348   0.43155   0.43352   0.43653
  Beta virt. eigenvalues --    0.44204   0.44497   0.44679   0.45146   0.45653
  Beta virt. eigenvalues --    0.46330   0.46379   0.46696   0.47284   0.47569
  Beta virt. eigenvalues --    0.47837   0.48626   0.48724   0.48831   0.49250
  Beta virt. eigenvalues --    0.49481   0.49614   0.49816   0.50889   0.50971
  Beta virt. eigenvalues --    0.51270   0.51818   0.52259   0.52447   0.52827
  Beta virt. eigenvalues --    0.53253   0.54012   0.54606   0.54713   0.55211
  Beta virt. eigenvalues --    0.55768   0.56647   0.57398   0.57605   0.58000
  Beta virt. eigenvalues --    0.58505   0.58819   0.59270   0.59573   0.59933
  Beta virt. eigenvalues --    0.60073   0.60454   0.60954   0.61445   0.61590
  Beta virt. eigenvalues --    0.62561   0.62721   0.63324   0.63870   0.64219
  Beta virt. eigenvalues --    0.64621   0.65254   0.66010   0.66110   0.66281
  Beta virt. eigenvalues --    0.66725   0.66979   0.67242   0.67381   0.67543
  Beta virt. eigenvalues --    0.68218   0.68538   0.68898   0.69040   0.69322
  Beta virt. eigenvalues --    0.69681   0.69994   0.70313   0.70420   0.70782
  Beta virt. eigenvalues --    0.70859   0.71196   0.71706   0.71894   0.72226
  Beta virt. eigenvalues --    0.72242   0.72705   0.73180   0.73774   0.74020
  Beta virt. eigenvalues --    0.74473   0.74684   0.75067   0.75287   0.75629
  Beta virt. eigenvalues --    0.76460   0.76978   0.77139   0.78013   0.78477
  Beta virt. eigenvalues --    0.78932   0.79159   0.79601   0.80173   0.80498
  Beta virt. eigenvalues --    0.80907   0.81548   0.81998   0.82968   0.83228
  Beta virt. eigenvalues --    0.84088   0.84645   0.84720   0.86098   0.86410
  Beta virt. eigenvalues --    0.86665   0.87677   0.88237   0.89579   0.89614
  Beta virt. eigenvalues --    0.90120   0.90420   0.90792   0.91328   0.91667
  Beta virt. eigenvalues --    0.91816   0.92572   0.93009   0.94222   0.94891
  Beta virt. eigenvalues --    0.95353   0.95822   0.96216   0.97247   0.97658
  Beta virt. eigenvalues --    0.98395   0.98860   0.99671   1.00512   1.01064
  Beta virt. eigenvalues --    1.01802   1.02344   1.02583   1.03249   1.03853
  Beta virt. eigenvalues --    1.04322   1.05088   1.05757   1.06203   1.06922
  Beta virt. eigenvalues --    1.07477   1.07811   1.08129   1.08510   1.08972
  Beta virt. eigenvalues --    1.09788   1.10121   1.10354   1.10433   1.10617
  Beta virt. eigenvalues --    1.10968   1.11403   1.11920   1.12486   1.13260
  Beta virt. eigenvalues --    1.13370   1.13660   1.14116   1.14440   1.14607
  Beta virt. eigenvalues --    1.15491   1.16050   1.16427   1.16925   1.17156
  Beta virt. eigenvalues --    1.17746   1.18071   1.18259   1.18633   1.19187
  Beta virt. eigenvalues --    1.19683   1.19966   1.20534   1.20776   1.21324
  Beta virt. eigenvalues --    1.22094   1.22184   1.22329   1.22624   1.23224
  Beta virt. eigenvalues --    1.23437   1.24332   1.24722   1.25125   1.25257
  Beta virt. eigenvalues --    1.26224   1.26752   1.27707   1.27882   1.28284
  Beta virt. eigenvalues --    1.28944   1.29475   1.29662   1.30147   1.30427
  Beta virt. eigenvalues --    1.30842   1.30940   1.32007   1.32508   1.32984
  Beta virt. eigenvalues --    1.33695   1.33956   1.34273   1.34930   1.35406
  Beta virt. eigenvalues --    1.36525   1.36701   1.37428   1.37898   1.38301
  Beta virt. eigenvalues --    1.38765   1.39067   1.39319   1.40378   1.41087
  Beta virt. eigenvalues --    1.41913   1.42539   1.43059   1.43195   1.43264
  Beta virt. eigenvalues --    1.43719   1.44038   1.44471   1.45225   1.45374
  Beta virt. eigenvalues --    1.45827   1.46379   1.46994   1.47811   1.48400
  Beta virt. eigenvalues --    1.48816   1.49392   1.49508   1.50813   1.50902
  Beta virt. eigenvalues --    1.52535   1.52623   1.53391   1.53683   1.54060
  Beta virt. eigenvalues --    1.55735   1.55855   1.56739   1.56889   1.57922
  Beta virt. eigenvalues --    1.58172   1.58367   1.58481   1.58828   1.59125
  Beta virt. eigenvalues --    1.59196   1.60077   1.60478   1.61264   1.61463
  Beta virt. eigenvalues --    1.62930   1.63135   1.63613   1.64552   1.65133
  Beta virt. eigenvalues --    1.65605   1.66587   1.67197   1.67764   1.68275
  Beta virt. eigenvalues --    1.68643   1.69265   1.70135   1.70206   1.70672
  Beta virt. eigenvalues --    1.71043   1.71466   1.71969   1.72036   1.73321
  Beta virt. eigenvalues --    1.73640   1.74013   1.74324   1.74626   1.75327
  Beta virt. eigenvalues --    1.75686   1.76032   1.76531   1.76829   1.77447
  Beta virt. eigenvalues --    1.78381   1.78903   1.79857   1.80314   1.80807
  Beta virt. eigenvalues --    1.81293   1.83325   1.83426   1.83728   1.84885
  Beta virt. eigenvalues --    1.85160   1.85374   1.85836   1.86771   1.87855
  Beta virt. eigenvalues --    1.88160   1.89091   1.89169   1.89504   1.89578
  Beta virt. eigenvalues --    1.89756   1.90073   1.90256   1.90547   1.91016
  Beta virt. eigenvalues --    1.91302   1.91473   1.91921   1.92325   1.92367
  Beta virt. eigenvalues --    1.92846   1.93754   1.94248   1.94763   1.95312
  Beta virt. eigenvalues --    1.95701   1.96529   1.96819   1.97200   1.98074
  Beta virt. eigenvalues --    1.98594   1.99150   1.99238   1.99371   2.00130
  Beta virt. eigenvalues --    2.00496   2.01347   2.01517   2.02037   2.02166
  Beta virt. eigenvalues --    2.02570   2.02978   2.03230   2.04470   2.04866
  Beta virt. eigenvalues --    2.05501   2.05912   2.06200   2.07043   2.07930
  Beta virt. eigenvalues --    2.08198   2.09421   2.10128   2.10530   2.10909
  Beta virt. eigenvalues --    2.11432   2.11973   2.12147   2.13193   2.13340
  Beta virt. eigenvalues --    2.13814   2.14861   2.15169   2.16025   2.16242
  Beta virt. eigenvalues --    2.16501   2.17131   2.17691   2.18367   2.19244
  Beta virt. eigenvalues --    2.19388   2.20209   2.21591   2.21823   2.22310
  Beta virt. eigenvalues --    2.23043   2.23498   2.23773   2.24202   2.24900
  Beta virt. eigenvalues --    2.26056   2.27315   2.27925   2.28745   2.29008
  Beta virt. eigenvalues --    2.29665   2.30380   2.31507   2.32057   2.32361
  Beta virt. eigenvalues --    2.33038   2.33509   2.34813   2.35892   2.37927
  Beta virt. eigenvalues --    2.38453   2.39481   2.41446   2.43092   2.43902
  Beta virt. eigenvalues --    2.48222   2.49991   2.50572   2.51257   2.55774
  Beta virt. eigenvalues --    2.56201   2.56313   2.56495   2.56714   2.58106
  Beta virt. eigenvalues --    2.59095   2.60830   2.61351   2.61473   2.61977
  Beta virt. eigenvalues --    2.62356   2.62500   2.62753   2.63232   2.63888
  Beta virt. eigenvalues --    2.64456   2.64906   2.65044   2.65380   2.65614
  Beta virt. eigenvalues --    2.65888   2.66381   2.66698   2.67259   2.67408
  Beta virt. eigenvalues --    2.67997   2.69199   2.70011   2.70233   2.70344
  Beta virt. eigenvalues --    2.70661   2.71896   2.72037   2.72924   2.73250
  Beta virt. eigenvalues --    2.73601   2.74309   2.74509   2.75360   2.75839
  Beta virt. eigenvalues --    2.76118   2.77422   2.77562   2.77810   2.78399
  Beta virt. eigenvalues --    2.78755   2.80024   2.80343   2.80546   2.80780
  Beta virt. eigenvalues --    2.81488   2.81919   2.82195   2.82952   2.83478
  Beta virt. eigenvalues --    2.84103   2.85874   2.86337   2.86622   2.87007
  Beta virt. eigenvalues --    2.87481   2.88973   2.91356   2.91543   2.92709
  Beta virt. eigenvalues --    2.93936   2.94377   2.95214   2.95941   2.96563
  Beta virt. eigenvalues --    2.97285   2.97752   2.97803   2.97940   2.98170
  Beta virt. eigenvalues --    2.98524   2.98892   2.99114   2.99486   2.99490
  Beta virt. eigenvalues --    3.00643   3.01122   3.02090   3.02984   3.03309
  Beta virt. eigenvalues --    3.03684   3.03806   3.03809   3.03967   3.04165
  Beta virt. eigenvalues --    3.04275   3.04297   3.04356   3.04450   3.04671
  Beta virt. eigenvalues --    3.04803   3.04862   3.04979   3.05152   3.05504
  Beta virt. eigenvalues --    3.06100   3.06975   3.07030   3.07309   3.09613
  Beta virt. eigenvalues --    3.10718   3.11192   3.12187   3.12960   3.15535
  Beta virt. eigenvalues --    3.15667   3.15797   3.15952   3.16017   3.16194
  Beta virt. eigenvalues --    3.16622   3.17343   3.19733   3.20919   3.23153
  Beta virt. eigenvalues --    3.25481   3.26602   3.27076   3.30812   3.31886
  Beta virt. eigenvalues --    3.33151   3.36057   3.36865   3.38055   3.38729
  Beta virt. eigenvalues --    3.39376   3.39412   3.39497   3.40154   3.40715
  Beta virt. eigenvalues --    3.41083   3.41285   3.41831   3.42678   3.45452
  Beta virt. eigenvalues --    3.50320   3.50969   3.52135   3.52211   3.52340
  Beta virt. eigenvalues --    3.52491   3.52799   3.53217   3.53875   3.55987
  Beta virt. eigenvalues --    3.58620   3.63074   3.65393   3.66917   3.67137
  Beta virt. eigenvalues --    3.67365   3.68358   3.69083   3.82342   3.82525
  Beta virt. eigenvalues --    3.82685   3.83151   3.83527   3.84238   6.46173
  Beta virt. eigenvalues --    6.49765   6.53051   6.55540   6.56608   7.92304
  Beta virt. eigenvalues --    7.93500   7.96318   7.98284   8.00111   8.01223
  Beta virt. eigenvalues --    8.05428   9.65261  13.96171  13.99671  14.01916
  Beta virt. eigenvalues --   24.89831  84.95027  92.00831  92.10949  92.16638
  Beta virt. eigenvalues --  314.02478 713.77639
          Condensed to atoms (all electrons):
          Atomic-Atomic Spin Densities.
 Mulliken charges and spin densities:
               1          2
     1  C   -0.010065   0.523113
     2  C    0.200174  -0.034067
     3  C    0.313746  -0.045559
     4  O   -0.209862   0.025711
     5  O   -0.172612   0.041522
     6  O   -0.240943   0.004759
     7  O   -0.259322   0.004268
     8  C    0.172553   0.000106
     9  C    0.160046  -0.000612
    10  H    0.061828  -0.000158
    11  H    0.069082   0.000526
    12  H    0.048325   0.000212
    13  H    0.069991   0.000434
    14  H    0.071212   0.000339
    15  H    0.054820   0.000407
    16  O   -0.466476   0.000175
    17  O   -0.458093   0.000727
    18  O   -0.469006   0.000087
    19  S    0.843444   0.000003
    20  S    0.835856  -0.000154
    21  S    0.847813   0.000254
    22  O   -0.480075   0.000121
    23  O   -0.448213   0.000039
    24  O   -0.471601   0.000240
    25  O   -0.446498   0.000040
    26  O   -0.487963   0.000188
    27  O   -0.450728   0.001716
    28  C    0.417254   0.000050
    29  C    0.407518   0.000025
    30  C    0.405612  -0.000005
    31  F   -0.139541  -0.000002
    32  F   -0.116905   0.000006
    33  F   -0.133243   0.000003
    34  F   -0.135415   0.000001
    35  F   -0.137653   0.000001
    36  F   -0.136147   0.000000
    37  F   -0.120766   0.000009
    38  F   -0.136827   0.000000
    39  F   -0.137805   0.000001
    40  C    0.277423   0.006766
    41  C   -0.156575  -0.006549
    42  C   -0.151614   0.004133
    43  C   -0.134699   0.005726
    44  C    0.089056   0.093548
    45  C    0.057631   0.065381
    46  C    0.100454   0.028010
    47  H    0.058080  -0.006233
    48  H    0.092111  -0.005279
    49  H    0.074557  -0.002203
    50  N    0.151762   0.001986
    51  N    0.151429   0.000308
    52  N   -0.113507   0.197562
    53  N    0.019602   0.033253
    54  C    0.168535  -0.075072
    55  H    0.108482   0.029548
    56  H    0.126038   0.002216
    57  C   -0.017992   0.004003
    58  C    0.015090  -0.000396
    59  C    0.004051  -0.001056
    60  C    0.001023   0.000081
    61  H    0.027121   0.000224
    62  C    0.001285   0.000495
    63  H    0.000842  -0.000143
    64  C    0.032853  -0.000514
    65  H    0.009234   0.000023
    66  H    0.017651  -0.000013
    67  H    0.020963   0.000031
    68  Yb   0.503299   0.000255
    69  O   -0.247701   0.099383
 Sum of Mulliken charges =  -0.00000   1.00000
 Mulliken charges and spin densities with hydrogens summed into heavy atoms:
               1          2
     1  C   -0.010065   0.523113
     2  C    0.200174  -0.034067
     3  C    0.313746  -0.045559
     4  O   -0.209862   0.025711
     5  O   -0.172612   0.041522
     6  O   -0.240943   0.004759
     7  O   -0.259322   0.004268
     8  C    0.351788   0.000686
     9  C    0.356070   0.000567
    16  O   -0.466476   0.000175
    17  O   -0.458093   0.000727
    18  O   -0.469006   0.000087
    19  S    0.843444   0.000003
    20  S    0.835856  -0.000154
    21  S    0.847813   0.000254
    22  O   -0.480075   0.000121
    23  O   -0.448213   0.000039
    24  O   -0.471601   0.000240
    25  O   -0.446498   0.000040
    26  O   -0.487963   0.000188
    27  O   -0.450728   0.001716
    28  C    0.417254   0.000050
    29  C    0.407518   0.000025
    30  C    0.405612  -0.000005
    31  F   -0.139541  -0.000002
    32  F   -0.116905   0.000006
    33  F   -0.133243   0.000003
    34  F   -0.135415   0.000001
    35  F   -0.137653   0.000001
    36  F   -0.136147   0.000000
    37  F   -0.120766   0.000009
    38  F   -0.136827   0.000000
    39  F   -0.137805   0.000001
    40  C    0.403461   0.008982
    41  C   -0.156575  -0.006549
    42  C   -0.151614   0.004133
    43  C   -0.134699   0.005726
    44  C    0.147137   0.087315
    45  C    0.149742   0.060102
    46  C    0.175011   0.025807
    50  N    0.151762   0.001986
    51  N    0.151429   0.000308
    52  N   -0.113507   0.197562
    53  N    0.019602   0.033253
    54  C    0.277017  -0.045524
    57  C   -0.017992   0.004003
    58  C    0.042211  -0.000172
    59  C    0.004892  -0.001200
    60  C    0.010257   0.000104
    62  C    0.018937   0.000482
    64  C    0.053816  -0.000484
    68  Yb   0.503299   0.000255
    69  O   -0.247701   0.099383
 APT charges:
               1
     1  C   -0.315183
     2  C   -0.135206
     3  C    0.022205
     4  O   -0.353838
     5  O   -0.412471
     6  O    0.175359
     7  O    0.103939
     8  C   -0.670300
     9  C   -0.727980
    10  H    0.832837
    11  H    0.059795
    12  H    0.210324
    13  H    0.874782
    14  H    0.386871
    15  H   -0.056364
    16  O   -0.713211
    17  O   -0.380465
    18  O   -0.744583
    19  S   -0.100068
    20  S    0.066763
    21  S    0.187565
    22  O   -0.569596
    23  O    0.840304
    24  O   -0.550675
    25  O    0.353485
    26  O   -0.633922
    27  O   -0.018074
    28  C   -0.627065
    29  C   -0.746997
    30  C   -0.562863
    31  F    0.260885
    32  F    0.108725
    33  F    0.557063
    34  F   -0.099049
    35  F    0.524554
    36  F    0.680499
    37  F   -0.395594
    38  F    0.669447
    39  F    0.332082
    40  C   -0.243639
    41  C   -1.438254
    42  C   -3.155964
    43  C   -1.894280
    44  C   -0.624445
    45  C   -0.709782
    46  C   -0.208023
    47  H    0.101895
    48  H    1.087643
    49  H    0.655065
    50  N    4.343152
    51  N    2.233846
    52  N   -0.126452
    53  N    0.170244
    54  C   -0.191517
    55  H    0.327409
    56  H    0.844600
    57  C   -0.437357
    58  C   -0.371471
    59  C   -0.654040
    60  C   -0.362736
    61  H   -0.101282
    62  C   -0.519415
    63  H    0.675999
    64  C   -0.533387
    65  H    0.305049
    66  H    1.083132
    67  H    0.947369
    68  Yb   0.472711
    69  O   -0.110050
 Sum of APT charges =  -0.00000
 APT charges with hydrogens summed into heavy atoms:
               1
     1  C   -0.315183
     2  C   -0.135206
     3  C    0.022205
     4  O   -0.353838
     5  O   -0.412471
     6  O    0.175359
     7  O    0.103939
     8  C    0.432657
     9  C    0.477308
    16  O   -0.713211
    17  O   -0.380465
    18  O   -0.744583
    19  S   -0.100068
    20  S    0.066763
    21  S    0.187565
    22  O   -0.569596
    23  O    0.840304
    24  O   -0.550675
    25  O    0.353485
    26  O   -0.633922
    27  O   -0.018074
    28  C   -0.627065
    29  C   -0.746997
    30  C   -0.562863
    31  F    0.260885
    32  F    0.108725
    33  F    0.557063
    34  F   -0.099049
    35  F    0.524554
    36  F    0.680499
    37  F   -0.395594
    38  F    0.669447
    39  F    0.332082
    40  C    0.600962
    41  C   -1.438254
    42  C   -3.155964
    43  C   -1.894280
    44  C   -0.522551
    45  C    0.377861
    46  C    0.447042
    50  N    4.343152
    51  N    2.233846
    52  N   -0.126452
    53  N    0.170244
    54  C    0.135892
    57  C   -0.437357
    58  C   -0.472753
    59  C    0.021959
    60  C   -0.057687
    62  C    0.563717
    64  C    0.413982
    68  Yb   0.472711
    69  O   -0.110050
 Electronic spatial extent (au):  <R**2>=          31920.7019
 Charge=              0.0000 electrons
 Dipole moment (field-independent basis, Debye):
    X=             24.3114    Y=             -9.6142    Z=              4.6290  Tot=             26.5501
 Quadrupole moment (field-independent basis, Debye-Ang):
   XX=           -339.9565   YY=           -338.6496   ZZ=           -342.9293
   XY=              7.7586   XZ=             11.6832   YZ=             -6.9654
 Traceless Quadrupole moment (field-independent basis, Debye-Ang):
   XX=              0.5553   YY=              1.8623   ZZ=             -2.4175
   XY=              7.7586   XZ=             11.6832   YZ=             -6.9654
 Octapole moment (field-independent basis, Debye-Ang**2):
  XXX=           -299.4020  YYY=           -115.0428  ZZZ=            111.1344  XYY=             66.8320
  XXY=             14.2658  XXZ=            220.0900  XZZ=            -19.5773  YZZ=             27.1758
  YYZ=             75.1407  XYZ=            -35.7485
 Hexadecapole moment (field-independent basis, Debye-Ang**3):
 XXXX=         -23970.5609 YYYY=         -11539.6849 ZZZZ=          -5953.9393 XXXY=            279.8737
 XXXZ=            757.2374 YYYX=            538.7107 YYYZ=           -120.6077 ZZZX=            293.9130
 ZZZY=           -275.1072 XXYY=          -5640.0832 XXZZ=          -4642.8781 YYZZ=          -2885.4212
 XXYZ=           -298.0139 YYXZ=            295.4728 ZZXY=             80.1367
 N-N= 1.168410366286D+04 E-N=-3.614395703716D+04  KE= 4.921888778584D+03
  Exact polarizability:   0.000   0.000   0.000   0.000   0.000   0.000
 Approx polarizability: 495.521 -21.318 467.594  52.636  11.540 473.670
                          Isotropic Fermi Contact Couplings
        Atom                 a.u.       MegaHertz       Gauss      10(-4) cm-1
     1  C(13)              0.14894     167.43967      59.74664      55.85186
     2  C(13)             -0.01665     -18.72332      -6.68095      -6.24543
     3  C(13)             -0.02467     -27.73821      -9.89768      -9.25247
     4  O(17)              0.00645      -3.91050      -1.39536      -1.30440
     5  O(17)              0.00908      -5.50316      -1.96367      -1.83566
     6  O(17)             -0.00124       0.75335       0.26881       0.25129
     7  O(17)              0.00047      -0.28624      -0.10214      -0.09548
     8  C(13)             -0.00005      -0.05809      -0.02073      -0.01938
     9  C(13)              0.00031       0.34706       0.12384       0.11577
    10  H(1)               0.00015       0.66581       0.23758       0.22209
    11  H(1)               0.00035       1.56620       0.55886       0.52243
    12  H(1)               0.00003       0.12409       0.04428       0.04139
    13  H(1)               0.00010       0.45347       0.16181       0.15126
    14  H(1)               0.00005       0.23947       0.08545       0.07988
    15  H(1)               0.00023       1.03442       0.36910       0.34504
    16  O(17)              0.00004      -0.02126      -0.00759      -0.00709
    17  O(17)              0.00058      -0.35402      -0.12632      -0.11809
    18  O(17)              0.00016      -0.09566      -0.03413      -0.03191
    19  S(33)             -0.00002      -0.00691      -0.00246      -0.00230
    20  S(33)             -0.00002      -0.00519      -0.00185      -0.00173
    21  S(33)             -0.00023      -0.07798      -0.02783      -0.02601
    22  O(17)              0.00013      -0.07812      -0.02788      -0.02606
    23  O(17)             -0.00000       0.00040       0.00014       0.00013
    24  O(17)              0.00015      -0.09113      -0.03252      -0.03040
    25  O(17)             -0.00000       0.00157       0.00056       0.00052
    26  O(17)             -0.00021       0.12521       0.04468       0.04177
    27  O(17)              0.00404      -2.44962      -0.87409      -0.81711
    28  C(13)              0.00001       0.00742       0.00265       0.00247
    29  C(13)              0.00005       0.05685       0.02029       0.01896
    30  C(13)             -0.00000      -0.00273      -0.00098      -0.00091
    31  F(19)             -0.00002      -0.10295      -0.03674      -0.03434
    32  F(19)             -0.00001      -0.02919      -0.01042      -0.00974
    33  F(19)              0.00001       0.04243       0.01514       0.01415
    34  F(19)             -0.00000      -0.01003      -0.00358      -0.00335
    35  F(19)             -0.00000      -0.01105      -0.00394      -0.00368
    36  F(19)             -0.00000      -0.00961      -0.00343      -0.00321
    37  F(19)              0.00001       0.02478       0.00884       0.00827
    38  F(19)             -0.00000      -0.00584      -0.00208      -0.00195
    39  F(19)             -0.00000      -0.00110      -0.00039      -0.00037
    40  C(13)              0.00015       0.16945       0.06046       0.05652
    41  C(13)              0.00664       7.46037       2.66205       2.48851
    42  C(13)              0.00898      10.09898       3.60357       3.36866
    43  C(13)              0.00258       2.89547       1.03318       0.96582
    44  C(13)              0.02098      23.58996       8.41748       7.86876
    45  C(13)              0.01209      13.59268       4.85021       4.53403
    46  C(13)             -0.00022      -0.24517      -0.08748      -0.08178
    47  H(1)              -0.00181      -8.09420      -2.88821      -2.69994
    48  H(1)              -0.00156      -6.96215      -2.48427      -2.32232
    49  H(1)              -0.00055      -2.44911      -0.87390      -0.81693
    50  N(14)              0.00054       0.17392       0.06206       0.05801
    51  N(14)              0.00150       0.48361       0.17256       0.16131
    52  N(14)              0.03657      11.81662       4.21646       3.94160
    53  N(14)             -0.00428      -1.38338      -0.49362      -0.46145
    54  C(13)             -0.03967     -44.60155     -15.91494     -14.87748
    55  H(1)               0.01364      60.97392      21.75701      20.33871
    56  H(1)               0.00098       4.39843       1.56947       1.46716
    57  C(13)              0.00089       0.99814       0.35616       0.33294
    58  C(13)             -0.00024      -0.26489      -0.09452      -0.08836
    59  C(13)              0.00007       0.07876       0.02810       0.02627
    60  C(13)             -0.00004      -0.04331      -0.01545      -0.01445
    61  H(1)              -0.00001      -0.05983      -0.02135      -0.01996
    62  C(13)              0.00005       0.05203       0.01857       0.01736
    63  H(1)               0.00001       0.06381       0.02277       0.02129
    64  C(13)             -0.00005      -0.05852      -0.02088      -0.01952
    65  H(1)               0.00003       0.13492       0.04814       0.04501
    66  H(1)              -0.00000      -0.01931      -0.00689      -0.00644
    67  H(1)               0.00001       0.03456       0.01233       0.01153
    68  Yb(171            -0.00008      -0.06420      -0.02291      -0.02141
    69  O(17)              0.00978      -5.92904      -2.11563      -1.97772
 --------------------------------------------------------
       Center         ----  Spin Dipole Couplings  ----
                      3XX-RR        3YY-RR        3ZZ-RR
 --------------------------------------------------------
     1   Atom       -0.093391      0.301552     -0.208161
     2   Atom       -0.008740     -0.019973      0.028713
     3   Atom        0.016403     -0.001073     -0.015330
     4   Atom        0.082516     -0.032160     -0.050356
     5   Atom       -0.072932     -0.083915      0.156846
     6   Atom       -0.015288      0.014456      0.000832
     7   Atom       -0.006845     -0.007632      0.014477
     8   Atom        0.000007     -0.000517      0.000509
     9   Atom        0.000442      0.000106     -0.000549
    10   Atom       -0.001159      0.000188      0.000971
    11   Atom       -0.001203     -0.000727      0.001930
    12   Atom       -0.001186      0.001015      0.000171
    13   Atom        0.000126      0.000485     -0.000611
    14   Atom        0.000589     -0.000595      0.000006
    15   Atom        0.001620     -0.000253     -0.001367
    16   Atom        0.002049     -0.001007     -0.001042
    17   Atom        0.003099     -0.001768     -0.001331
    18   Atom        0.000445      0.000630     -0.001075
    19   Atom        0.000120      0.000399     -0.000519
    20   Atom        0.001235     -0.000632     -0.000603
    21   Atom        0.000465     -0.001741      0.001276
    22   Atom        0.000504      0.000158     -0.000662
    23   Atom        0.000035      0.000138     -0.000173
    24   Atom        0.002211     -0.001105     -0.001106
    25   Atom        0.000892     -0.000486     -0.000406
    26   Atom        0.004972     -0.003080     -0.001892
    27   Atom        0.001573     -0.004783      0.003210
    28   Atom        0.000557     -0.000537     -0.000021
    29   Atom        0.000602     -0.000305     -0.000297
    30   Atom       -0.000332      0.000825     -0.000493
    31   Atom        0.000366     -0.000167     -0.000199
    32   Atom        0.000672     -0.000428     -0.000244
    33   Atom        0.000206     -0.000378      0.000172
    34   Atom        0.000525     -0.000262     -0.000263
    35   Atom        0.000443     -0.000219     -0.000224
    36   Atom        0.000402     -0.000205     -0.000197
    37   Atom       -0.000807      0.001429     -0.000622
    38   Atom       -0.000203      0.000443     -0.000240
    39   Atom       -0.000368      0.000842     -0.000475
[...]
    41   Atom       -0.003105     -0.005570     -0.011016
    42   Atom        0.003204     -0.004576     -0.002602
    43   Atom        0.002295     -0.000182      0.004087
    44   Atom       -0.165839     -0.061742      0.130786
    45   Atom       -0.133389     -0.039175      0.059962
    46   Atom       -0.009554      0.005460     -0.005257
    47   Atom        0.012566     -0.000526      0.004542
    48   Atom       -0.004129      0.014149      0.002516
    49   Atom       -0.000420      0.001322     -0.003951
    50   Atom        0.002663     -0.001279      0.003592
    51   Atom       -0.001135     -0.001224      0.007502
    52   Atom       -0.367556     -0.097490      0.273335
    53   Atom       -0.036885     -0.003814      0.067216
    54   Atom       -0.006062     -0.004832      0.012423
    55   Atom        0.004883      0.003522      0.006088
    56   Atom        0.000406     -0.001833     -0.003777
    57   Atom        0.000810      0.000046     -0.001605
    58   Atom       -0.000704      0.000291     -0.000971
    59   Atom        0.002115      0.000252     -0.000246
    60   Atom       -0.000095      0.000041     -0.000137
    61   Atom       -0.000632      0.000233     -0.001161
    62   Atom        0.000917      0.000128      0.000156
    63   Atom        0.004256      0.000059     -0.000738
    64   Atom        0.000242      0.000145      0.000146
    65   Atom       -0.000178      0.000025     -0.000154
    66   Atom        0.000892      0.000216      0.000386
    67   Atom        0.000157      0.000034      0.000139
    68   Atom       -0.000547     -0.000451      0.001478
    69   Atom       -0.056781      0.013549     -0.017353
 --------------------------------------------------------


 ---------------------------------------------------------------------------------
              Anisotropic Spin Dipole Couplings in Principal Axis System
 ---------------------------------------------------------------------------------

       Atom             a.u.   MegaHertz   Gauss  10(-4) cm-1        Axes

              Baa    -0.0751   -10.075    -3.595    -3.361 -0.4825  0.0326  0.8753
     1 C(13)  Bbb    -0.0711    -9.537    -3.403    -3.181  0.6829  0.6397  0.3526
              Bcc     0.1462    19.612     6.998     6.542 -0.5485  0.7679 -0.3309
 
              Baa    -0.0068    -0.909    -0.324    -0.303  0.7094  0.6865 -0.1597
     2 C(13)  Bbb    -0.0004    -0.057    -0.020    -0.019  0.5383 -0.3814  0.7515
              Bcc     0.0072     0.966     0.345     0.322 -0.4550  0.6191  0.6401
 
              Baa    -0.0047    -0.629    -0.224    -0.210 -0.4117 -0.0588  0.9094
     3 C(13)  Bbb    -0.0023    -0.307    -0.110    -0.102  0.0187  0.9972  0.0730
              Bcc     0.0070     0.936     0.334     0.312  0.9111 -0.0471  0.4094
 
              Baa    -0.0102     0.739     0.264     0.247 -0.2837  0.7503  0.5972
     4 O(17)  Bbb    -0.0083     0.600     0.214     0.200 -0.1039 -0.6431  0.7587
              Bcc     0.0185    -1.339    -0.478    -0.447  0.9533  0.1532  0.2604
 
              Baa    -0.0176     1.275     0.455     0.425  0.8690  0.4920  0.0532
     5 O(17)  Bbb    -0.0122     0.886     0.316     0.296 -0.4427  0.8209 -0.3608
              Bcc     0.0299    -2.161    -0.771    -0.721 -0.2212  0.2900  0.9311
 
              Baa    -0.0042     0.307     0.110     0.103  0.7887  0.4096 -0.4584
     6 O(17)  Bbb    -0.0035     0.250     0.089     0.084  0.5501 -0.1372  0.8238
              Bcc     0.0077    -0.558    -0.199    -0.186 -0.2745  0.9019  0.3335
 
              Baa    -0.0063     0.457     0.163     0.152  0.1255  0.8722 -0.4728
     7 O(17)  Bbb    -0.0011     0.078     0.028     0.026  0.1591  0.4527  0.8774
              Bcc     0.0074    -0.535    -0.191    -0.178  0.9793 -0.1853 -0.0820
 
              Baa    -0.0030    -0.404    -0.144    -0.135 -0.3407 -0.5775  0.7419
     8 C(13)  Bbb    -0.0014    -0.183    -0.065    -0.061  0.7893  0.2530  0.5594
              Bcc     0.0044     0.587     0.209     0.196 -0.5108  0.7762  0.3696
 
              Baa    -0.0012    -0.164    -0.058    -0.055  0.1582  0.7774 -0.6088
     9 C(13)  Bbb    -0.0011    -0.151    -0.054    -0.050 -0.4731  0.6009  0.6442
              Bcc     0.0023     0.314     0.112     0.105  0.8667  0.1861  0.4629
 
              Baa    -0.0025    -1.320    -0.471    -0.440 -0.4772 -0.5667  0.6717
    10 H(1)   Bbb    -0.0015    -0.806    -0.288    -0.269  0.8705 -0.1998  0.4499
              Bcc     0.0040     2.126     0.758     0.709 -0.1207  0.7994  0.5886
 
              Baa    -0.0015    -0.791    -0.282    -0.264  0.3356 -0.5023  0.7969
    11 H(1)   Bbb    -0.0013    -0.693    -0.247    -0.231  0.8476  0.5301 -0.0229
              Bcc     0.0028     1.484     0.530     0.495 -0.4109  0.6832  0.6037
 
              Baa    -0.0013    -0.679    -0.242    -0.227  0.6491  0.4050 -0.6439
    12 H(1)   Bbb    -0.0011    -0.604    -0.216    -0.202  0.7239 -0.0691  0.6864
              Bcc     0.0024     1.283     0.458     0.428 -0.2335  0.9117  0.3381
 
              Baa    -0.0009    -0.501    -0.179    -0.167 -0.6719  0.2847  0.6837
    13 H(1)   Bbb    -0.0009    -0.467    -0.167    -0.156 -0.1319  0.8624 -0.4888
              Bcc     0.0018     0.967     0.345     0.323  0.7288  0.4186  0.5419
 
              Baa    -0.0008    -0.429    -0.153    -0.143 -0.6308  0.3496  0.6928
    14 H(1)   Bbb    -0.0008    -0.405    -0.144    -0.135  0.1424  0.9298 -0.3395
              Bcc     0.0016     0.834     0.297     0.278  0.7628  0.1155  0.6362
 
              Baa    -0.0009    -0.486    -0.174    -0.162 -0.3091  0.9013  0.3035
    15 H(1)   Bbb    -0.0008    -0.444    -0.158    -0.148 -0.2620 -0.3875  0.8838
              Bcc     0.0017     0.930     0.332     0.310  0.9142  0.1936  0.3559
 
              Baa    -0.0006     0.042     0.015     0.014 -0.0816  0.4751  0.8761
    16 O(17)  Bbb    -0.0005     0.038     0.014     0.013  0.0523  0.8799 -0.4723
              Bcc     0.0011    -0.080    -0.029    -0.027  0.9953 -0.0073  0.0967
 
              Baa    -0.0017     0.123     0.044     0.041  0.2820  0.3596  0.8895
    17 O(17)  Bbb    -0.0013     0.097     0.034     0.032  0.2637  0.8623 -0.4323
              Bcc     0.0030    -0.220    -0.079    -0.073  0.9225 -0.3564 -0.1484
 
              Baa    -0.0005     0.036     0.013     0.012  0.4911  0.6230  0.6089
    18 O(17)  Bbb    -0.0005     0.035     0.012     0.012 -0.5281 -0.3429  0.7769
              Bcc     0.0010    -0.070    -0.025    -0.023 -0.6928  0.7030 -0.1606
 
              Baa    -0.0003    -0.014    -0.005    -0.005  0.7430  0.6678  0.0441
    19 S(33)  Bbb    -0.0003    -0.013    -0.005    -0.004 -0.0254 -0.0376  0.9990
              Bcc     0.0007     0.027     0.010     0.009 -0.6688  0.7434  0.0110
 
              Baa    -0.0004    -0.015    -0.005    -0.005 -0.0445  0.8293  0.5570
    20 S(33)  Bbb    -0.0003    -0.014    -0.005    -0.005 -0.2699 -0.5468  0.7925
              Bcc     0.0007     0.029     0.010     0.010  0.9619 -0.1151  0.2482
 
              Baa    -0.0024    -0.099    -0.035    -0.033  0.5098  0.3327  0.7934
    21 S(33)  Bbb    -0.0020    -0.084    -0.030    -0.028  0.0583  0.9067 -0.4177
              Bcc     0.0045     0.183     0.065     0.061  0.8583 -0.2592 -0.4428
 
              Baa    -0.0004     0.031     0.011     0.010  0.6556  0.6492  0.3856
    22 O(17)  Bbb    -0.0004     0.030     0.011     0.010 -0.1637 -0.3764  0.9119
              Bcc     0.0008    -0.061    -0.022    -0.020  0.7371 -0.6610 -0.1405
 
              Baa    -0.0002     0.015     0.005     0.005  0.7151  0.6577  0.2368
    23 O(17)  Bbb    -0.0002     0.012     0.004     0.004 -0.1904 -0.1426  0.9713
              Bcc     0.0004    -0.027    -0.010    -0.009 -0.6726  0.7397 -0.0233
 
              Baa    -0.0005     0.034     0.012     0.011  0.0896  0.8102  0.5792
    24 O(17)  Bbb    -0.0004     0.032     0.011     0.011 -0.3413 -0.5214  0.7821
              Bcc     0.0009    -0.065    -0.023    -0.022  0.9357 -0.2678  0.2298
 
              Baa    -0.0003     0.023     0.008     0.008 -0.3482  0.4384  0.8286
    25 O(17)  Bbb    -0.0003     0.022     0.008     0.007  0.1648  0.8988 -0.4063
              Bcc     0.0006    -0.044    -0.016    -0.015  0.9228  0.0049  0.3852
 
              Baa    -0.0075     0.540     0.193     0.180  0.1568  0.8144  0.5587
    26 O(17)  Bbb    -0.0065     0.472     0.168     0.157  0.1290 -0.5777  0.8060
              Bcc     0.0140    -1.011    -0.361    -0.337  0.9792 -0.0543 -0.1956
 
              Baa    -0.0139     1.008     0.360     0.336  0.6608  0.1077  0.7428
    27 O(17)  Bbb    -0.0130     0.939     0.335     0.313  0.1616  0.9460 -0.2810
              Bcc     0.0269    -1.948    -0.695    -0.650  0.7329 -0.3057 -0.6077
 
              Baa    -0.0011    -0.142    -0.051    -0.047  0.4141  0.0997  0.9048
    28 C(13)  Bbb    -0.0008    -0.113    -0.040    -0.038 -0.2737  0.9616  0.0193
              Bcc     0.0019     0.255     0.091     0.085  0.8681  0.2556 -0.4255
 
              Baa    -0.0002    -0.027    -0.010    -0.009  0.0492  0.8954  0.4426
    29 C(13)  Bbb    -0.0002    -0.026    -0.009    -0.009 -0.1808 -0.4278  0.8856
              Bcc     0.0004     0.053     0.019     0.018  0.9823 -0.1235  0.1408
 
              Baa    -0.0003    -0.045    -0.016    -0.015 -0.0288 -0.1108  0.9934
    30 C(13)  Bbb    -0.0003    -0.045    -0.016    -0.015  0.8788  0.4707  0.0780
              Bcc     0.0007     0.091     0.032     0.030 -0.4762  0.8753  0.0838
 
              Baa    -0.0013    -0.632    -0.226    -0.211  0.3111  0.2491  0.9171
    31 F(19)  Bbb    -0.0010    -0.504    -0.180    -0.168 -0.5198  0.8525 -0.0552
              Bcc     0.0023     1.136     0.405     0.379  0.7956  0.4595 -0.3947
 
              Baa    -0.0006    -0.289    -0.103    -0.096  0.2672  0.0247  0.9633
    32 F(19)  Bbb    -0.0006    -0.278    -0.099    -0.093 -0.1772  0.9839  0.0239
              Bcc     0.0011     0.567     0.202     0.189  0.9472  0.1771 -0.2673
 
              Baa    -0.0006    -0.290    -0.103    -0.097  0.1828  0.8811  0.4362
    33 F(19)  Bbb    -0.0006    -0.276    -0.099    -0.092  0.5740 -0.4559  0.6802
              Bcc     0.0011     0.566     0.202     0.189  0.7982  0.1260 -0.5890
 
              Baa    -0.0002    -0.095    -0.034    -0.032  0.1652  0.8381  0.5199
    34 F(19)  Bbb    -0.0002    -0.091    -0.033    -0.030 -0.1375 -0.5024  0.8536
              Bcc     0.0004     0.186     0.066     0.062  0.9766 -0.2125  0.0323
 
              Baa    -0.0002    -0.087    -0.031    -0.029 -0.0527  0.8991  0.4347
    35 F(19)  Bbb    -0.0002    -0.083    -0.030    -0.028 -0.0971 -0.4378  0.8938
              Bcc     0.0003     0.170     0.061     0.057  0.9939  0.0049  0.1104
 
              Baa    -0.0001    -0.073    -0.026    -0.024 -0.0149  0.7753  0.6314
    36 F(19)  Bbb    -0.0001    -0.072    -0.026    -0.024 -0.2858 -0.6084  0.7404
              Bcc     0.0003     0.146     0.052     0.049  0.9582 -0.1694  0.2307
 
              Baa    -0.0005    -0.276    -0.098    -0.092  0.0153 -0.1779  0.9839
    37 F(19)  Bbb    -0.0005    -0.252    -0.090    -0.084  0.9212  0.3852  0.0553
              Bcc     0.0011     0.528     0.189     0.176 -0.3888  0.9055  0.1698
 
              Baa    -0.0002    -0.117    -0.042    -0.039  0.6894  0.4803 -0.5423
    38 F(19)  Bbb    -0.0002    -0.116    -0.041    -0.039  0.5574  0.1264  0.8206
              Bcc     0.0005     0.233     0.083     0.078 -0.4627  0.8679  0.1806
 
              Baa    -0.0003    -0.149    -0.053    -0.050  0.5757  0.2861  0.7660
    39 F(19)  Bbb    -0.0003    -0.146    -0.052    -0.049  0.7155  0.2772 -0.6413
              Bcc     0.0006     0.295     0.105     0.098 -0.3958  0.9172 -0.0451
 
              Baa    -0.0205    -2.756    -0.984    -0.919  0.1595  0.6353  0.7556
    40 C(13)  Bbb    -0.0153    -2.053    -0.733    -0.685  0.8153  0.3468 -0.4637
              Bcc     0.0358     4.810     1.716     1.604 -0.5566  0.6900 -0.4627
 
              Baa    -0.0131    -1.764    -0.629    -0.588  0.5676  0.5673  0.5967
    41 C(13)  Bbb    -0.0002    -0.028    -0.010    -0.009  0.8147 -0.4912 -0.3080
              Bcc     0.0133     1.791     0.639     0.597 -0.1184 -0.6610  0.7410
 
              Baa    -0.0058    -0.781    -0.279    -0.261 -0.1107  0.9194  0.3773
    42 C(13)  Bbb    -0.0031    -0.414    -0.148    -0.138  0.5428 -0.2621  0.7979
              Bcc     0.0089     1.195     0.426     0.399  0.8325  0.2932 -0.4701
 
              Baa    -0.0073    -0.983    -0.351    -0.328 -0.5406  0.8131 -0.2159
    43 C(13)  Bbb    -0.0024    -0.318    -0.113    -0.106  0.8406  0.5116 -0.1780
              Bcc     0.0097     1.301     0.464     0.434  0.0343  0.2777  0.9601
 
              Baa    -0.1629   -21.866    -7.802    -7.294  0.3180 -0.1909  0.9287
    44 C(13)  Bbb    -0.1592   -21.359    -7.622    -7.125  0.8591  0.4723 -0.1972
              Bcc     0.3221    43.225    15.424    14.418 -0.4010  0.8605  0.3142
 
              Baa    -0.1169   -15.683    -5.596    -5.231  0.8714  0.4238  0.2471
    45 C(13)  Bbb    -0.0976   -13.093    -4.672    -4.367 -0.1097 -0.3227  0.9401
              Bcc     0.2144    28.776    10.268     9.599 -0.4781  0.8463  0.2347
 
              Baa    -0.0166    -2.225    -0.794    -0.742  0.2932  0.9389  0.1802
    46 C(13)  Bbb    -0.0007    -0.091    -0.033    -0.030 -0.4536 -0.0293  0.8907
              Bcc     0.0173     2.316     0.826     0.773  0.8416 -0.3429  0.4173
 
              Baa    -0.0205   -10.959    -3.911    -3.656  0.0991 -0.2749  0.9564
    47 H(1)   Bbb    -0.0050    -2.687    -0.959    -0.896 -0.4329  0.8535  0.2902
              Bcc     0.0256    13.647     4.869     4.552  0.8960  0.4427  0.0344
 
              Baa    -0.0170    -9.067    -3.235    -3.024  0.8000  0.4618 -0.3830
    48 H(1)   Bbb    -0.0053    -2.807    -1.001    -0.936 -0.4251  0.8868  0.1814
              Bcc     0.0223    11.874     4.237     3.961  0.4235  0.0177  0.9057
 
              Baa    -0.0052    -2.758    -0.984    -0.920  0.0154  0.9572  0.2891
    49 H(1)   Bbb    -0.0040    -2.144    -0.765    -0.715  0.9943  0.0159 -0.1056
              Bcc     0.0092     4.902     1.749     1.635  0.1057 -0.2891  0.9515
 
              Baa    -0.0066    -0.256    -0.091    -0.086  0.2366 -0.4908  0.8385
    50 N(14)  Bbb     0.0015     0.058     0.021     0.019 -0.5439  0.6482  0.5329
              Bcc     0.0052     0.199     0.071     0.066  0.8051  0.5821  0.1136
 
              Baa    -0.0057    -0.221    -0.079    -0.074  0.1124  0.7972 -0.5932
    51 N(14)  Bbb    -0.0043    -0.166    -0.059    -0.055  0.9868 -0.0196  0.1606
              Bcc     0.0100     0.387     0.138     0.129 -0.1165  0.6034  0.7889
 
              Baa    -0.4354   -16.794    -5.992    -5.602  0.7128  0.0645  0.6984
    52 N(14)  Bbb    -0.4244   -16.370    -5.841    -5.460 -0.6292 -0.3812  0.6774
              Bcc     0.8599    33.163    11.833    11.062 -0.3099  0.9222  0.2312
 
              Baa    -0.1446    -5.577    -1.990    -1.860  0.9912  0.1086 -0.0753
    53 N(14)  Bbb    -0.1105    -4.262    -1.521    -1.422  0.0940 -0.1786  0.9794
              Bcc     0.2551     9.839     3.511     3.282 -0.0929  0.9779  0.1872
 
              Baa    -0.0218    -2.921    -1.042    -0.974  0.1650 -0.2545  0.9529
    54 C(13)  Bbb    -0.0045    -0.601    -0.215    -0.201  0.9571  0.2747 -0.0924
              Bcc     0.0262     3.522     1.257     1.175 -0.2382  0.9273  0.2889
 
              Baa    -0.0080    -4.260    -1.520    -1.421 -0.6557  0.7379 -0.1599
    55 H(1)   Bbb    -0.0031    -1.639    -0.585    -0.547  0.6634  0.4619 -0.5886
              Bcc     0.0111     5.899     2.105     1.968  0.3605  0.4920  0.7924
 
              Baa    -0.0036    -1.896    -0.677    -0.633  0.5283  0.6747  0.5154
    56 H(1)   Bbb    -0.0023    -1.236    -0.441    -0.412  0.8214 -0.5599 -0.1090
              Bcc     0.0059     3.133     1.118     1.045 -0.2150 -0.4809  0.8500
 
              Baa    -0.0028    -0.373    -0.133    -0.124  0.8492 -0.1992 -0.4891
    57 C(13)  Bbb    -0.0023    -0.306    -0.109    -0.102  0.5182  0.1358  0.8444
              Bcc     0.0051     0.679     0.242     0.226  0.1018  0.9705 -0.2185
 
              Baa    -0.0016    -0.220    -0.079    -0.073 -0.5292  0.1038  0.8421
    58 C(13)  Bbb    -0.0014    -0.184    -0.065    -0.061  0.8310  0.2638  0.4897
              Bcc     0.0030     0.404     0.144     0.135 -0.1714  0.9590 -0.2259
 
              Baa    -0.0025    -0.341    -0.122    -0.114  0.8406 -0.3117 -0.4430
    59 C(13)  Bbb    -0.0017    -0.233    -0.083    -0.078  0.4244 -0.1290  0.8962
              Bcc     0.0043     0.574     0.205     0.191  0.3365  0.9414 -0.0238
 
              Baa    -0.0008    -0.108    -0.039    -0.036 -0.6297  0.0200  0.7766
    60 C(13)  Bbb    -0.0007    -0.098    -0.035    -0.033  0.7757  0.0706  0.6271
              Bcc     0.0015     0.207     0.074     0.069 -0.0423  0.9973 -0.0600
 
              Baa    -0.0013    -0.696    -0.248    -0.232 -0.0399  0.3306  0.9429
    61 H(1)   Bbb    -0.0012    -0.626    -0.223    -0.209  0.9814  0.1903 -0.0252
              Bcc     0.0025     1.322     0.472     0.441 -0.1878  0.9244 -0.3321
 
              Baa    -0.0011    -0.151    -0.054    -0.050  0.8799 -0.2601 -0.3977
    62 C(13)  Bbb    -0.0009    -0.124    -0.044    -0.041  0.3611 -0.1781  0.9154
              Bcc     0.0020     0.275     0.098     0.092  0.3089  0.9490  0.0628
 
              Baa    -0.0035    -1.874    -0.669    -0.625  0.7290 -0.5490 -0.4088
    63 H(1)   Bbb    -0.0022    -1.196    -0.427    -0.399  0.3714 -0.1844  0.9100
              Bcc     0.0058     3.070     1.096     1.024  0.5749  0.8152 -0.0695
 
              Baa    -0.0008    -0.111    -0.040    -0.037 -0.6029  0.0135  0.7977
    64 C(13)  Bbb    -0.0006    -0.076    -0.027    -0.025  0.7881 -0.1456  0.5981
              Bcc     0.0014     0.187     0.067     0.062  0.1242  0.9893  0.0771
 
              Baa    -0.0005    -0.269    -0.096    -0.090 -0.4165  0.0450  0.9080
    65 H(1)   Bbb    -0.0005    -0.260    -0.093    -0.087  0.9009  0.1543  0.4056
              Bcc     0.0010     0.529     0.189     0.177 -0.1218  0.9870 -0.1048
 
              Baa    -0.0008    -0.452    -0.161    -0.151  0.8253 -0.2778 -0.4917
    66 H(1)   Bbb    -0.0008    -0.409    -0.146    -0.136  0.3865 -0.3569  0.8504
              Bcc     0.0016     0.860     0.307     0.287  0.4117  0.8919  0.1871
 
              Baa    -0.0004    -0.237    -0.085    -0.079 -0.7029  0.0087  0.7113
    67 H(1)   Bbb    -0.0004    -0.219    -0.078    -0.073  0.7002 -0.1677  0.6940
              Bcc     0.0009     0.456     0.163     0.152  0.1253  0.9858  0.1118
 
              Baa    -0.0026    -0.241    -0.086    -0.080  0.0317  0.7817 -0.6228
    68 Yb(171 Bbb     0.0002     0.020     0.007     0.007  0.3492  0.5752  0.7397
              Bcc     0.0023     0.220     0.079     0.073  0.9365 -0.2410 -0.2547
 
              Baa    -0.0530     3.836     1.369     1.280 -0.6852 -0.2262  0.6923
    69 O(17)  Bbb    -0.0442     3.202     1.142     1.068  0.5781  0.4094  0.7059
              Bcc     0.0973    -7.038    -2.511    -2.348 -0.4431  0.8839 -0.1497
 

 ---------------------------------------------------------------------------------


 This type of calculation cannot be archived.


 DIATOMIC MOLECULES ARE PECULIAR BECAUSE THEY ONLY HAVE TWO ENDS,
 AND THESE ENDS ARE VERY CLOSE TOGETHER.
 KLAUS RUEDENBERG, REV.MOD.PHYS. PG 176, 32, (1960)
 Job cpu time:      24 days 16 hours 46 minutes 26.0 seconds.
 Elapsed time:       1 days  2 hours  0 minutes 57.6 seconds.
 File lengths (MBytes):  RWF=  13900 Int=      0 D2E=      0 Chk=    156 Scr=      8
 Normal termination of Gaussian 16 at Thu Mar 20 20:44:24 2025.
