 Entering Gaussian System, Link 0=/sysapps/ubuntu-applications/gaussian-new/avx/g16//g16
 Input=ts-min.in
 Output=ts-min.log
 Initial command:
 /sysapps/ubuntu-applications/gaussian-new/avx/g16/l1.exe "/data/temp-scratch/selhajj1/321/Gau-1523581.inp" -scrdir="/data/temp-scratch/selhajj1/321/"
 Entering Link 1 = /sysapps/ubuntu-applications/gaussian-new/avx/g16/l1.exe PID=   1523583.
  
 Copyright (c) 1988,1990,1992,1993,1995,1998,2003,2009,2016,
            Gaussian, Inc.  All Rights Reserved.
  
 This is part of the Gaussian(R) 16 program.  It is based on
 the Gaussian(R) 09 system (copyright 2009, Gaussian, Inc.),
 the Gaussian(R) 03 system (copyright 2003, Gaussian, Inc.),
 the Gaussian(R) 98 system (copyright 1998, Gaussian, Inc.),
 the Gaussian(R) 94 system (copyright 1995, Gaussian, Inc.),
 the Gaussian 92(TM) system (copyright 1992, Gaussian, Inc.),
 the Gaussian 90(TM) system (copyright 1990, Gaussian, Inc.),
 the Gaussian 88(TM) system (copyright 1988, Gaussian, Inc.),
 the Gaussian 86(TM) system (copyright 1986, Carnegie Mellon
 University), and the Gaussian 82(TM) system (copyright 1983,
 Carnegie Mellon University). Gaussian is a federally registered
 trademark of Gaussian, Inc.
  
 This software contains proprietary and confidential information,
 including trade secrets, belonging to Gaussian, Inc.
  
 This software is provided under written license and may be
 used, copied, transmitted, or stored only in accord with that
 written license.
  
 The following legend is applicable only to US Government
 contracts under FAR:
  
                    RESTRICTED RIGHTS LEGEND
  
 Use, reproduction and disclosure by the US Government is
 subject to restrictions as set forth in subparagraphs (a)
 and (c) of the Commercial Computer Software - Restricted
 Rights clause in FAR 52.227-19.
  
 Gaussian, Inc.
 340 Quinnipiac St., Bldg. 40, Wallingford CT 06492
  
  
 ---------------------------------------------------------------
 Warning -- This program may not be used in any manner that
 competes with the business of Gaussian, Inc. or will provide
 assistance to any competitor of Gaussian, Inc.  The licensee
 of this program is prohibited from giving any competitor of
 Gaussian, Inc. access to this program.  By using this program,
 the user acknowledges that Gaussian, Inc. is engaged in the
 business of creating and licensing software in the field of
 computational chemistry and represents and warrants to the
 licensee that it is not a competitor of Gaussian, Inc. and that
 it will not use this program in any manner prohibited above.
 ---------------------------------------------------------------
  

 Cite this work as:
 Gaussian 16, Revision A.03,
 M. J. Frisch, G. W. Trucks, H. B. Schlegel, G. E. Scuseria, 
 M. A. Robb, J. R. Cheeseman, G. Scalmani, V. Barone, 
 G. A. Petersson, H. Nakatsuji, X. Li, M. Caricato, A. V. Marenich, 
 J. Bloino, B. G. Janesko, R. Gomperts, B. Mennucci, H. P. Hratchian, 
 J. V. Ortiz, A. F. Izmaylov, J. L. Sonnenberg, D. Williams-Young, 
 F. Ding, F. Lipparini, F. Egidi, J. Goings, B. Peng, A. Petrone, 
 T. Henderson, D. Ranasinghe, V. G. Zakrzewski, J. Gao, N. Rega, 
 G. Zheng, W. Liang, M. Hada, M. Ehara, K. Toyota, R. Fukuda, 
 J. Hasegawa, M. Ishida, T. Nakajima, Y. Honda, O. Kitao, H. Nakai, 
 T. Vreven, K. Throssell, J. A. Montgomery, Jr., J. E. Peralta, 
 F. Ogliaro, M. J. Bearpark, J. J. Heyd, E. N. Brothers, K. N. Kudin, 
 V. N. Staroverov, T. A. Keith, R. Kobayashi, J. Normand, 
 K. Raghavachari, A. P. Rendell, J. C. Burant, S. S. Iyengar, 
 J. Tomasi, M. Cossi, J. M. Millam, M. Klene, C. Adamo, R. Cammi, 
 J. W. Ochterski, R. L. Martin, K. Morokuma, O. Farkas, 
 J. B. Foresman, and D. J. Fox, Gaussian, Inc., Wallingford CT, 2016.
 
 ******************************************
 Gaussian 16:  ES64L-G16RevA.03 25-Dec-2016
                12-Mar-2025 
 ******************************************
 %chk=ts-min.chk
 %mem=616Gb
 %nprocshared=24
 Will use up to   24 processors via shared memory.
 ----------------------------------------------------------------------
 #opt=(calcfc,modred) freq UMN15/genecp scf=(maxcyc=500) scrf=(smd,solv
 ent=DiChloroEthane)
 ----------------------------------------------------------------------
 1/10=4,18=120,19=15,26=3,38=1/1,3;
 2/9=110,12=2,17=6,18=5,40=1/2;
 3/5=7,11=2,16=1,17=8,25=1,30=1,70=32201,71=2,72=10,74=-73,116=2,140=1/1,2,3;
 4//1;
 5/5=2,7=500,38=5,53=10/2;
 8/6=4,10=90,11=11/1;
 11/6=1,8=1,9=11,15=111,16=1/1,2,10;
 10/6=1,13=1/2;
 6/7=2,8=2,9=2,10=2,28=1/1;
 7/10=1,18=20,25=1/1,2,3,16;
 1/10=4,18=20,19=15,26=3/3(2);
 2/9=110/2;
 99//99;
 2/9=110/2;
 3/5=7,6=1,11=2,16=1,17=8,25=1,30=1,70=32205,71=1,72=10,74=-73,82=7,116=2/1,2,3;
 4/5=5,16=3,69=1/1;
 5/5=2,7=500,38=5,53=10/2;
 7//1,2,3,16;
 1/18=20,19=15,26=3/3(-5);
 2/9=110/2;
 6/7=2,8=2,9=2,10=2,19=2,28=1/1;
 99/9=1/99;
 -----------------------------------------------------------------
 ts opt for i3 Going from i2 to i3, where we are forming bond 1-54
 -----------------------------------------------------------------
 Symbolic Z-matrix:
 Charge =  0 Multiplicity = 2
 C                    -1.92635  -0.68309   0.94733 
 C                    -1.77273  -0.03567  -0.41672 
 C                    -0.63775  -1.14627   1.6021 
 O                     0.35861  -0.45477   1.62016 
 O                    -0.73563   0.54382  -0.75592 
 O                    -2.82277  -0.19497  -1.17427 
 O                    -0.75501  -2.29789   2.20494 
 C                    -2.82248   0.45988  -2.45249 
 C                     0.44491  -2.81663   2.80877 
 H                    -3.81624   0.29177  -2.88147 
 H                    -2.04262   0.01452  -3.08287 
 H                    -2.63532   1.53363  -2.31123 
 H                     0.17611  -3.78828   3.23375 
 H                     0.7959   -2.13149   3.59087 
 H                     1.21573  -2.91716   2.03333 
 O                     2.84792  -1.75529   0.53974 
 O                     1.37889  -0.86344  -2.35307 
 O                     0.97469   2.44685   0.88916 
 S                     1.86587   3.37539   0.15857 
 S                     3.58501  -1.08858   1.6436 
 S                     0.3812   -1.91023  -2.039 
 O                     2.71626   2.61274  -0.78883 
 O                     2.51009   4.42279   0.92239 
 O                     3.29352   0.36432   1.63201 
 O                     3.57932  -1.75927   2.92874 
 O                     0.23922  -1.85205  -0.56627 
 O                    -0.80892  -1.92635  -2.88086 
 C                     1.23603  -3.48478  -2.43211 
 C                     5.3273   -1.159     1.0695 
 C                     0.70396   4.25417  -0.9613 
 F                     0.43731  -4.49397  -2.10454 
 F                     2.36251  -3.58473  -1.75168 
 F                     1.49882  -3.54614  -3.72725 
 F                     5.42783  -0.56187  -0.11258 
 F                     5.71592  -2.4192    0.94722 
 F                     6.1209   -0.54295   1.93078 
 F                    -0.01641   3.37348  -1.6476 
 F                     1.36994   5.01785  -1.81351 
 F                    -0.11868   5.01894  -0.25336 
 C                    -4.03397   0.3276    1.76029 
 C                    -4.8784   -0.99398   1.66843 
 C                    -6.33036  -0.76381   1.57462 
 C                    -4.63919  -1.73273   2.92888 
 C                    -2.73471  -3.16325  -0.49307 
 C                    -4.71682  -2.40604  -1.61782 
 C                    -3.50562  -3.1481   -1.6278 
 H                    -1.80456  -3.7256   -0.41942 
 H                    -5.36846  -2.36149  -2.49286 
 H                    -3.21559  -3.70661  -2.51778 
 N                    -7.47184  -0.58305   1.59235 
 N                    -4.45909  -2.28032   3.93077 
 N                    -4.39463  -1.80497   0.52946 
 N                    -5.13731  -1.75017  -0.56202 
 C                    -3.16526  -2.40355   0.62663 
 H                    -2.82943  -2.66302   1.63451 
 H                    -4.27411   0.75461   2.74627 
 C                    -4.18749   1.4139    0.71486 
 C                    -3.20343   2.41552   0.73836 
 C                    -5.23796   1.50307  -0.20511 
 C                    -3.27113   3.49149  -0.14689 
 H                    -2.37592   2.35641   1.45115 
 C                    -5.30782   2.59112  -1.07944 
 H                    -6.00804   0.73497  -0.27202 
 C                    -4.33033   3.58628  -1.0531 
 H                    -2.49515   4.258    -0.1216 
 H                    -6.13523   2.65155  -1.78945 
 H                    -4.3896    4.43246  -1.74079 
 Yb                    1.68718   0.32886  -0.30322 
 O                    -2.69271  -0.13492   1.91724 
 
 The following ModRedundant input section has been read:
 B       1      54 F                                                           
 B       1      54 F                                                           
 

 GradGradGradGradGradGradGradGradGradGradGradGradGradGradGradGradGradGrad
 Berny optimization.
 Initialization pass.
                           ----------------------------
                           !    Initial Parameters    !
                           ! (Angstroms and Degrees)  !
 --------------------------                            --------------------------
 ! Name  Definition              Value          Derivative Info.                !
 --------------------------------------------------------------------------------
 ! R1    R(1,2)                  1.5177         calculate D2E/DX2 analytically  !
 ! R2    R(1,3)                  1.5178         calculate D2E/DX2 analytically  !
 ! R3    R(1,54)                 2.1442         frozen, calculate D2E/DX2 analyt!
 ! R4    R(1,69)                 1.3522         calculate D2E/DX2 analytically  !
 ! R5    R(2,5)                  1.2355         calculate D2E/DX2 analytically  !
 ! R6    R(2,6)                  1.3046         calculate D2E/DX2 analytically  !
 ! R7    R(3,4)                  1.2129         calculate D2E/DX2 analytically  !
 ! R8    R(3,7)                  1.3051         calculate D2E/DX2 analytically  !
 ! R9    R(4,68)                 2.4655         calculate D2E/DX2 analytically  !
 ! R10   R(5,68)                 2.4741         calculate D2E/DX2 analytically  !
 ! R11   R(6,8)                  1.4362         calculate D2E/DX2 analytically  !
 ! R12   R(7,9)                  1.44           calculate D2E/DX2 analytically  !
 ! R13   R(8,10)                 1.0954         calculate D2E/DX2 analytically  !
 ! R14   R(8,11)                 1.0972         calculate D2E/DX2 analytically  !
 ! R15   R(8,12)                 1.0991         calculate D2E/DX2 analytically  !
 ! R16   R(9,13)                 1.0941         calculate D2E/DX2 analytically  !
 ! R17   R(9,14)                 1.0974         calculate D2E/DX2 analytically  !
 ! R18   R(9,15)                 1.098          calculate D2E/DX2 analytically  !
 ! R19   R(16,20)                1.4854         calculate D2E/DX2 analytically  !
 ! R20   R(16,68)                2.5301         calculate D2E/DX2 analytically  !
 ! R21   R(17,21)                1.4798         calculate D2E/DX2 analytically  !
 ! R22   R(17,68)                2.3913         calculate D2E/DX2 analytically  !
 ! R23   R(18,19)                1.4799         calculate D2E/DX2 analytically  !
 ! R24   R(18,68)                2.5329         calculate D2E/DX2 analytically  !
 ! R25   R(19,22)                1.484          calculate D2E/DX2 analytically  !
 ! R26   R(19,23)                1.4476         calculate D2E/DX2 analytically  !
 ! R27   R(19,30)                1.8375         calculate D2E/DX2 analytically  !
 ! R28   R(20,24)                1.4819         calculate D2E/DX2 analytically  !
 ! R29   R(20,25)                1.4496         calculate D2E/DX2 analytically  !
 ! R30   R(20,29)                1.8358         calculate D2E/DX2 analytically  !
 ! R31   R(20,68)                3.0661         calculate D2E/DX2 analytically  !
 ! R32   R(21,26)                1.4807         calculate D2E/DX2 analytically  !
 ! R33   R(21,27)                1.4579         calculate D2E/DX2 analytically  !
 ! R34   R(21,28)                1.8343         calculate D2E/DX2 analytically  !
 ! R35   R(22,68)                2.5517         calculate D2E/DX2 analytically  !
 ! R36   R(24,68)                2.5153         calculate D2E/DX2 analytically  !
 ! R37   R(28,31)                1.3281         calculate D2E/DX2 analytically  !
 ! R38   R(28,32)                1.3198         calculate D2E/DX2 analytically  !
 ! R39   R(28,33)                1.3229         calculate D2E/DX2 analytically  !
 ! R40   R(29,34)                1.3282         calculate D2E/DX2 analytically  !
 ! R41   R(29,35)                1.3244         calculate D2E/DX2 analytically  !
 ! R42   R(29,36)                1.3233         calculate D2E/DX2 analytically  !
 ! R43   R(30,37)                1.3287         calculate D2E/DX2 analytically  !
 ! R44   R(30,38)                1.324          calculate D2E/DX2 analytically  !
 ! R45   R(30,39)                1.3277         calculate D2E/DX2 analytically  !
 ! R46   R(40,41)                1.571          calculate D2E/DX2 analytically  !
 ! R47   R(40,56)                1.101          calculate D2E/DX2 analytically  !
 ! R48   R(40,57)                1.5154         calculate D2E/DX2 analytically  !
 ! R49   R(40,69)                1.4274         calculate D2E/DX2 analytically  !
 ! R50   R(41,42)                1.4731         calculate D2E/DX2 analytically  !
 ! R51   R(41,43)                1.4804         calculate D2E/DX2 analytically  !
 ! R52   R(41,52)                1.4795         calculate D2E/DX2 analytically  !
 ! R53   R(42,50)                1.1558         calculate D2E/DX2 analytically  !
 ! R54   R(43,51)                1.1559         calculate D2E/DX2 analytically  !
 ! R55   R(44,46)                1.3719         calculate D2E/DX2 analytically  !
 ! R56   R(44,47)                1.0894         calculate D2E/DX2 analytically  !
 ! R57   R(44,54)                1.4199         calculate D2E/DX2 analytically  !
 ! R58   R(45,46)                1.4205         calculate D2E/DX2 analytically  !
 ! R59   R(45,48)                1.0919         calculate D2E/DX2 analytically  !
 ! R60   R(45,53)                1.3121         calculate D2E/DX2 analytically  !
 ! R61   R(46,49)                1.09           calculate D2E/DX2 analytically  !
 ! R62   R(52,53)                1.3213         calculate D2E/DX2 analytically  !
 ! R63   R(52,54)                1.3708         calculate D2E/DX2 analytically  !
 ! R64   R(54,55)                1.0936         calculate D2E/DX2 analytically  !
 ! R65   R(57,58)                1.4043         calculate D2E/DX2 analytically  !
 ! R66   R(57,59)                1.3992         calculate D2E/DX2 analytically  !
 ! R67   R(58,60)                1.395          calculate D2E/DX2 analytically  !
 ! R68   R(58,61)                1.0938         calculate D2E/DX2 analytically  !
 ! R69   R(59,62)                1.3976         calculate D2E/DX2 analytically  !
 ! R70   R(59,63)                1.0897         calculate D2E/DX2 analytically  !
 ! R71   R(60,64)                1.3972         calculate D2E/DX2 analytically  !
 ! R72   R(60,65)                1.091          calculate D2E/DX2 analytically  !
 ! R73   R(62,64)                1.3952         calculate D2E/DX2 analytically  !
 ! R74   R(62,66)                1.0919         calculate D2E/DX2 analytically  !
 ! R75   R(64,67)                1.092          calculate D2E/DX2 analytically  !
 ! A1    A(2,1,3)              115.5919         calculate D2E/DX2 analytically  !
 ! A2    A(2,1,69)             121.9443         calculate D2E/DX2 analytically  !
 ! A3    A(3,1,69)             107.1836         calculate D2E/DX2 analytically  !
 ! A4    A(1,2,5)              122.1275         calculate D2E/DX2 analytically  !
 ! A5    A(1,2,6)              112.8514         calculate D2E/DX2 analytically  !
 ! A6    A(5,2,6)              124.9951         calculate D2E/DX2 analytically  !
 ! A7    A(1,3,4)              121.9949         calculate D2E/DX2 analytically  !
 ! A8    A(1,3,7)              113.0941         calculate D2E/DX2 analytically  !
 ! A9    A(4,3,7)              124.7479         calculate D2E/DX2 analytically  !
 ! A10   A(3,4,68)             127.7512         calculate D2E/DX2 analytically  !
 ! A11   A(2,5,68)             136.9731         calculate D2E/DX2 analytically  !
 ! A12   A(2,6,8)              117.45           calculate D2E/DX2 analytically  !
 ! A13   A(3,7,9)              115.8928         calculate D2E/DX2 analytically  !
 ! A14   A(6,8,10)             106.164          calculate D2E/DX2 analytically  !
 ! A15   A(6,8,11)             109.0504         calculate D2E/DX2 analytically  !
 ! A16   A(6,8,12)             109.3361         calculate D2E/DX2 analytically  !
 ! A17   A(10,8,11)            110.9485         calculate D2E/DX2 analytically  !
 ! A18   A(10,8,12)            110.7788         calculate D2E/DX2 analytically  !
 ! A19   A(11,8,12)            110.4481         calculate D2E/DX2 analytically  !
 ! A20   A(7,9,13)             106.1465         calculate D2E/DX2 analytically  !
 ! A21   A(7,9,14)             109.9054         calculate D2E/DX2 analytically  !
 ! A22   A(7,9,15)             108.7738         calculate D2E/DX2 analytically  !
 ! A23   A(13,9,14)            110.8684         calculate D2E/DX2 analytically  !
 ! A24   A(13,9,15)            111.438          calculate D2E/DX2 analytically  !
 ! A25   A(14,9,15)            109.63           calculate D2E/DX2 analytically  !
 ! A26   A(21,17,68)           104.9329         calculate D2E/DX2 analytically  !
 ! A27   A(19,18,68)            97.0572         calculate D2E/DX2 analytically  !
 ! A28   A(18,19,22)           109.7419         calculate D2E/DX2 analytically  !
 ! A29   A(18,19,23)           117.4827         calculate D2E/DX2 analytically  !
 ! A30   A(18,19,30)           102.7177         calculate D2E/DX2 analytically  !
 ! A31   A(22,19,23)           116.9796         calculate D2E/DX2 analytically  !
 ! A32   A(22,19,30)           102.6529         calculate D2E/DX2 analytically  !
 ! A33   A(23,19,30)           104.8897         calculate D2E/DX2 analytically  !
 ! A34   A(16,20,24)           109.6727         calculate D2E/DX2 analytically  !
 ! A35   A(16,20,25)           116.6928         calculate D2E/DX2 analytically  !
 ! A36   A(16,20,29)           102.7877         calculate D2E/DX2 analytically  !
 ! A37   A(24,20,25)           117.3722         calculate D2E/DX2 analytically  !
 ! A38   A(24,20,29)           102.8179         calculate D2E/DX2 analytically  !
 ! A39   A(25,20,29)           105.2614         calculate D2E/DX2 analytically  !
 ! A40   A(25,20,68)           140.7463         calculate D2E/DX2 analytically  !
 ! A41   A(29,20,68)           113.9923         calculate D2E/DX2 analytically  !
 ! A42   A(17,21,26)           104.3564         calculate D2E/DX2 analytically  !
 ! A43   A(17,21,27)           115.8264         calculate D2E/DX2 analytically  !
 ! A44   A(17,21,28)           104.3322         calculate D2E/DX2 analytically  !
 ! A45   A(26,21,27)           119.7695         calculate D2E/DX2 analytically  !
 ! A46   A(26,21,28)           106.9523         calculate D2E/DX2 analytically  !
 ! A47   A(27,21,28)           104.3113         calculate D2E/DX2 analytically  !
 ! A48   A(19,22,68)            96.1644         calculate D2E/DX2 analytically  !
 ! A49   A(21,28,31)           108.6127         calculate D2E/DX2 analytically  !
 ! A50   A(21,28,32)           110.627          calculate D2E/DX2 analytically  !
 ! A51   A(21,28,33)           110.0112         calculate D2E/DX2 analytically  !
 ! A52   A(31,28,32)           109.1842         calculate D2E/DX2 analytically  !
 ! A53   A(31,28,33)           109.0074         calculate D2E/DX2 analytically  !
 ! A54   A(32,28,33)           109.369          calculate D2E/DX2 analytically  !
 ! A55   A(20,29,34)           109.4463         calculate D2E/DX2 analytically  !
 ! A56   A(20,29,35)           110.1121         calculate D2E/DX2 analytically  !
 ! A57   A(20,29,36)           110.351          calculate D2E/DX2 analytically  !
 ! A58   A(34,29,35)           108.8697         calculate D2E/DX2 analytically  !
 ! A59   A(34,29,36)           108.9397         calculate D2E/DX2 analytically  !
 ! A60   A(35,29,36)           109.092          calculate D2E/DX2 analytically  !
 ! A61   A(19,30,37)           109.9149         calculate D2E/DX2 analytically  !
 ! A62   A(19,30,38)           110.4908         calculate D2E/DX2 analytically  !
 ! A63   A(19,30,39)           110.0171         calculate D2E/DX2 analytically  !
 ! A64   A(37,30,38)           108.8168         calculate D2E/DX2 analytically  !
 ! A65   A(37,30,39)           108.7406         calculate D2E/DX2 analytically  !
 ! A66   A(38,30,39)           108.8214         calculate D2E/DX2 analytically  !
 ! A67   A(41,40,56)           105.1525         calculate D2E/DX2 analytically  !
 ! A68   A(41,40,57)           120.5455         calculate D2E/DX2 analytically  !
 ! A69   A(41,40,69)           103.8227         calculate D2E/DX2 analytically  !
 ! A70   A(56,40,57)           108.523          calculate D2E/DX2 analytically  !
 ! A71   A(56,40,69)           103.424          calculate D2E/DX2 analytically  !
 ! A72   A(57,40,69)           113.7849         calculate D2E/DX2 analytically  !
 ! A73   A(40,41,42)           113.7087         calculate D2E/DX2 analytically  !
 ! A74   A(40,41,43)           106.448          calculate D2E/DX2 analytically  !
 ! A75   A(40,41,52)           109.2915         calculate D2E/DX2 analytically  !
 ! A76   A(42,41,43)           106.9451         calculate D2E/DX2 analytically  !
 ! A77   A(42,41,52)           111.0332         calculate D2E/DX2 analytically  !
 ! A78   A(43,41,52)           109.212          calculate D2E/DX2 analytically  !
 ! A79   A(46,44,47)           122.7784         calculate D2E/DX2 analytically  !
 ! A80   A(46,44,54)           118.42           calculate D2E/DX2 analytically  !
 ! A81   A(47,44,54)           118.7994         calculate D2E/DX2 analytically  !
 ! A82   A(46,45,48)           121.637          calculate D2E/DX2 analytically  !
 ! A83   A(46,45,53)           122.6851         calculate D2E/DX2 analytically  !
 ! A84   A(48,45,53)           115.6699         calculate D2E/DX2 analytically  !
 ! A85   A(44,46,45)           118.6264         calculate D2E/DX2 analytically  !
 ! A86   A(44,46,49)           121.3427         calculate D2E/DX2 analytically  !
 ! A87   A(45,46,49)           120.0191         calculate D2E/DX2 analytically  !
 ! A88   A(41,52,53)           115.4291         calculate D2E/DX2 analytically  !
 ! A89   A(41,52,54)           118.5565         calculate D2E/DX2 analytically  !
 ! A90   A(53,52,54)           125.5031         calculate D2E/DX2 analytically  !
 ! A91   A(45,53,52)           117.6343         calculate D2E/DX2 analytically  !
 ! A92   A(44,54,52)           116.7217         calculate D2E/DX2 analytically  !
 ! A93   A(44,54,55)           120.4439         calculate D2E/DX2 analytically  !
 ! A94   A(52,54,55)           116.3818         calculate D2E/DX2 analytically  !
 ! A95   A(40,57,58)           115.3872         calculate D2E/DX2 analytically  !
 ! A96   A(40,57,59)           125.1216         calculate D2E/DX2 analytically  !
 ! A97   A(58,57,59)           119.4475         calculate D2E/DX2 analytically  !
 ! A98   A(57,58,60)           120.3649         calculate D2E/DX2 analytically  !
 ! A99   A(57,58,61)           120.1662         calculate D2E/DX2 analytically  !
 ! A100  A(60,58,61)           119.4688         calculate D2E/DX2 analytically  !
 ! A101  A(57,59,62)           119.8996         calculate D2E/DX2 analytically  !
 ! A102  A(57,59,63)           121.7355         calculate D2E/DX2 analytically  !
 ! A103  A(62,59,63)           118.3605         calculate D2E/DX2 analytically  !
 ! A104  A(58,60,64)           120.0477         calculate D2E/DX2 analytically  !
 ! A105  A(58,60,65)           119.5164         calculate D2E/DX2 analytically  !
 ! A106  A(64,60,65)           120.4352         calculate D2E/DX2 analytically  !
 ! A107  A(59,62,64)           120.5627         calculate D2E/DX2 analytically  !
 ! A108  A(59,62,66)           119.1925         calculate D2E/DX2 analytically  !
 ! A109  A(64,62,66)           120.244          calculate D2E/DX2 analytically  !
 ! A110  A(60,64,62)           119.6691         calculate D2E/DX2 analytically  !
 ! A111  A(60,64,67)           120.1443         calculate D2E/DX2 analytically  !
 ! A112  A(62,64,67)           120.1858         calculate D2E/DX2 analytically  !
 ! A113  A(4,68,5)              69.0631         calculate D2E/DX2 analytically  !
 ! A114  A(4,68,16)             74.067          calculate D2E/DX2 analytically  !
 ! A115  A(4,68,17)            116.1536         calculate D2E/DX2 analytically  !
 ! A116  A(4,68,18)             75.3411         calculate D2E/DX2 analytically  !
 ! A117  A(4,68,20)             72.0173         calculate D2E/DX2 analytically  !
 ! A118  A(4,68,22)            130.5625         calculate D2E/DX2 analytically  !
 ! A119  A(4,68,24)             75.4277         calculate D2E/DX2 analytically  !
 ! A120  A(5,68,16)            125.5763         calculate D2E/DX2 analytically  !
 ! A121  A(5,68,17)             76.1266         calculate D2E/DX2 analytically  !
 ! A122  A(5,68,18)             74.812          calculate D2E/DX2 analytically  !
 ! A123  A(5,68,20)            139.684          calculate D2E/DX2 analytically  !
 ! A124  A(5,68,22)            106.4004         calculate D2E/DX2 analytically  !
 ! A125  A(5,68,24)            139.9019         calculate D2E/DX2 analytically  !
 ! A126  A(16,68,17)            86.2176         calculate D2E/DX2 analytically  !
 ! A127  A(16,68,18)           131.3777         calculate D2E/DX2 analytically  !
 ! A128  A(16,68,22)           128.001          calculate D2E/DX2 analytically  !
 ! A129  A(16,68,24)            57.4727         calculate D2E/DX2 analytically  !
 ! A130  A(17,68,18)           141.6467         calculate D2E/DX2 analytically  !
 ! A131  A(17,68,20)           113.1777         calculate D2E/DX2 analytically  !
 ! A132  A(17,68,22)           109.5802         calculate D2E/DX2 analytically  !
 ! A133  A(17,68,24)           138.4935         calculate D2E/DX2 analytically  !
 ! A134  A(18,68,20)           105.1756         calculate D2E/DX2 analytically  !
 ! A135  A(18,68,22)            56.9469         calculate D2E/DX2 analytically  !
 ! A136  A(18,68,24)            78.7936         calculate D2E/DX2 analytically  !
 ! A137  A(20,68,22)           106.558          calculate D2E/DX2 analytically  !
 ! A138  A(22,68,24)            82.8913         calculate D2E/DX2 analytically  !
 ! A139  A(1,69,40)            125.8042         calculate D2E/DX2 analytically  !
 ! A140  L(41,42,50,48,-1)     184.2746         calculate D2E/DX2 analytically  !
 ! A141  L(41,43,51,3,-1)      180.3926         calculate D2E/DX2 analytically  !
 ! A142  L(41,42,50,48,-2)     178.4516         calculate D2E/DX2 analytically  !
 ! A143  L(41,43,51,3,-2)      178.289          calculate D2E/DX2 analytically  !
 ! D1    D(3,1,2,5)            -26.955          calculate D2E/DX2 analytically  !
 ! D2    D(3,1,2,6)            151.2783         calculate D2E/DX2 analytically  !
 ! D3    D(69,1,2,5)           106.254          calculate D2E/DX2 analytically  !
 ! D4    D(69,1,2,6)           -75.5127         calculate D2E/DX2 analytically  !
 ! D5    D(2,1,3,4)             44.8969         calculate D2E/DX2 analytically  !
 ! D6    D(2,1,3,7)           -139.538          calculate D2E/DX2 analytically  !
 ! D7    D(69,1,3,4)           -94.7586         calculate D2E/DX2 analytically  !
 ! D8    D(69,1,3,7)            80.8065         calculate D2E/DX2 analytically  !
 ! D9    D(2,1,69,40)           49.0051         calculate D2E/DX2 analytically  !
 ! D10   D(3,1,69,40)         -174.4723         calculate D2E/DX2 analytically  !
 ! D11   D(1,2,5,68)            31.7913         calculate D2E/DX2 analytically  !
 ! D12   D(6,2,5,68)          -146.2212         calculate D2E/DX2 analytically  !
 ! D13   D(1,2,6,8)            175.6524         calculate D2E/DX2 analytically  !
 ! D14   D(5,2,6,8)             -6.174          calculate D2E/DX2 analytically  !
 ! D15   D(1,3,4,68)           -63.3835         calculate D2E/DX2 analytically  !
 ! D16   D(7,3,4,68)           121.5826         calculate D2E/DX2 analytically  !
 ! D17   D(1,3,7,9)            177.9685         calculate D2E/DX2 analytically  !
 ! D18   D(4,3,7,9)             -6.6094         calculate D2E/DX2 analytically  !
 ! D19   D(3,4,68,5)            43.1427         calculate D2E/DX2 analytically  !
 ! D20   D(3,4,68,16)          -96.06           calculate D2E/DX2 analytically  !
 ! D21   D(3,4,68,17)          -18.5703         calculate D2E/DX2 analytically  !
 ! D22   D(3,4,68,18)          122.1978         calculate D2E/DX2 analytically  !
 ! D23   D(3,4,68,20)         -126.1244         calculate D2E/DX2 analytically  !
 ! D24   D(3,4,68,22)          137.1819         calculate D2E/DX2 analytically  !
 ! D25   D(3,4,68,24)         -155.8245         calculate D2E/DX2 analytically  !
 ! D26   D(2,5,68,4)           -29.5543         calculate D2E/DX2 analytically  !
 ! D27   D(2,5,68,16)           21.0221         calculate D2E/DX2 analytically  !
 ! D28   D(2,5,68,17)           95.9396         calculate D2E/DX2 analytically  !
 ! D29   D(2,5,68,18)         -109.3653         calculate D2E/DX2 analytically  !
 ! D30   D(2,5,68,20)          -13.6652         calculate D2E/DX2 analytically  !
 ! D31   D(2,5,68,22)         -157.3733         calculate D2E/DX2 analytically  !
 ! D32   D(2,5,68,24)          -58.7891         calculate D2E/DX2 analytically  !
 ! D33   D(2,6,8,10)          -174.2676         calculate D2E/DX2 analytically  !
 ! D34   D(2,6,8,11)            66.1351         calculate D2E/DX2 analytically  !
 ! D35   D(2,6,8,12)           -54.7198         calculate D2E/DX2 analytically  !
 ! D36   D(3,7,9,13)          -178.2038         calculate D2E/DX2 analytically  !
 ! D37   D(3,7,9,14)            61.8459         calculate D2E/DX2 analytically  !
 ! D38   D(3,7,9,15)           -58.1841         calculate D2E/DX2 analytically  !
 ! D39   D(68,17,21,26)         -9.3182         calculate D2E/DX2 analytically  !
 ! D40   D(68,17,21,27)        124.5708         calculate D2E/DX2 analytically  !
 ! D41   D(68,17,21,28)       -121.4066         calculate D2E/DX2 analytically  !
 ! D42   D(21,17,68,4)          -0.0199         calculate D2E/DX2 analytically  !
 ! D43   D(21,17,68,5)         -57.9237         calculate D2E/DX2 analytically  !
 ! D44   D(21,17,68,16)         70.1667         calculate D2E/DX2 analytically  !
 ! D45   D(21,17,68,18)        -99.5894         calculate D2E/DX2 analytically  !
 ! D46   D(21,17,68,20)         80.5466         calculate D2E/DX2 analytically  !
 ! D47   D(21,17,68,22)       -160.6816         calculate D2E/DX2 analytically  !
 ! D48   D(21,17,68,24)         97.5621         calculate D2E/DX2 analytically  !
 ! D49   D(68,18,19,22)         -2.8218         calculate D2E/DX2 analytically  !
 ! D50   D(68,18,19,23)       -139.7081         calculate D2E/DX2 analytically  !
 ! D51   D(68,18,19,30)        105.815          calculate D2E/DX2 analytically  !
 ! D52   D(19,18,68,4)         168.2895         calculate D2E/DX2 analytically  !
 ! D53   D(19,18,68,5)        -119.8735         calculate D2E/DX2 analytically  !
 ! D54   D(19,18,68,16)        115.7763         calculate D2E/DX2 analytically  !
 ! D55   D(19,18,68,17)        -77.9028         calculate D2E/DX2 analytically  !
 ! D56   D(19,18,68,20)        101.9675         calculate D2E/DX2 analytically  !
 ! D57   D(19,18,68,22)          1.8425         calculate D2E/DX2 analytically  !
 ! D58   D(19,18,68,24)         90.6052         calculate D2E/DX2 analytically  !
 ! D59   D(18,19,22,68)          2.796          calculate D2E/DX2 analytically  !
 ! D60   D(23,19,22,68)        139.9236         calculate D2E/DX2 analytically  !
 ! D61   D(30,19,22,68)       -105.884          calculate D2E/DX2 analytically  !
 ! D62   D(18,19,30,37)        -52.1832         calculate D2E/DX2 analytically  !
 ! D63   D(18,19,30,38)       -172.2903         calculate D2E/DX2 analytically  !
 ! D64   D(18,19,30,39)         67.5311         calculate D2E/DX2 analytically  !
 ! D65   D(22,19,30,37)         61.7432         calculate D2E/DX2 analytically  !
 ! D66   D(22,19,30,38)        -58.364          calculate D2E/DX2 analytically  !
 ! D67   D(22,19,30,39)       -178.5426         calculate D2E/DX2 analytically  !
 ! D68   D(23,19,30,37)       -175.518          calculate D2E/DX2 analytically  !
 ! D69   D(23,19,30,38)         64.3749         calculate D2E/DX2 analytically  !
 ! D70   D(23,19,30,39)        -55.8038         calculate D2E/DX2 analytically  !
 ! D71   D(16,20,29,34)         57.3772         calculate D2E/DX2 analytically  !
 ! D72   D(16,20,29,35)        -62.2623         calculate D2E/DX2 analytically  !
 ! D73   D(16,20,29,36)        177.2506         calculate D2E/DX2 analytically  !
 ! D74   D(24,20,29,34)        -56.556          calculate D2E/DX2 analytically  !
 ! D75   D(24,20,29,35)       -176.1956         calculate D2E/DX2 analytically  !
 ! D76   D(24,20,29,36)         63.3173         calculate D2E/DX2 analytically  !
 ! D77   D(25,20,29,34)       -179.9802         calculate D2E/DX2 analytically  !
 ! D78   D(25,20,29,35)         60.3802         calculate D2E/DX2 analytically  !
 ! D79   D(25,20,29,36)        -60.1069         calculate D2E/DX2 analytically  !
 ! D80   D(68,20,29,34)          0.0925         calculate D2E/DX2 analytically  !
 ! D81   D(68,20,29,35)       -119.5471         calculate D2E/DX2 analytically  !
 ! D82   D(68,20,29,36)        119.9658         calculate D2E/DX2 analytically  !
 ! D83   D(25,20,68,4)          -1.23           calculate D2E/DX2 analytically  !
 ! D84   D(25,20,68,5)         -16.8248         calculate D2E/DX2 analytically  !
 ! D85   D(25,20,68,17)       -112.646          calculate D2E/DX2 analytically  !
 ! D86   D(25,20,68,18)         67.4415         calculate D2E/DX2 analytically  !
 ! D87   D(25,20,68,22)        126.849          calculate D2E/DX2 analytically  !
 ! D88   D(29,20,68,4)         178.6592         calculate D2E/DX2 analytically  !
 ! D89   D(29,20,68,5)         163.0644         calculate D2E/DX2 analytically  !
 ! D90   D(29,20,68,17)         67.2432         calculate D2E/DX2 analytically  !
 ! D91   D(29,20,68,18)       -112.6693         calculate D2E/DX2 analytically  !
 ! D92   D(29,20,68,22)        -53.2618         calculate D2E/DX2 analytically  !
 ! D93   D(17,21,28,31)        176.3813         calculate D2E/DX2 analytically  !
 ! D94   D(17,21,28,32)         56.5623         calculate D2E/DX2 analytically  !
 ! D95   D(17,21,28,33)        -64.3833         calculate D2E/DX2 analytically  !
 ! D96   D(26,21,28,31)         66.1736         calculate D2E/DX2 analytically  !
 ! D97   D(26,21,28,32)        -53.6454         calculate D2E/DX2 analytically  !
 ! D98   D(26,21,28,33)       -174.591          calculate D2E/DX2 analytically  !
 ! D99   D(27,21,28,31)        -61.666          calculate D2E/DX2 analytically  !
 ! D100  D(27,21,28,32)        178.515          calculate D2E/DX2 analytically  !
 ! D101  D(27,21,28,33)         57.5694         calculate D2E/DX2 analytically  !
 ! D102  D(19,22,68,4)         -19.1975         calculate D2E/DX2 analytically  !
 ! D103  D(19,22,68,5)          57.011          calculate D2E/DX2 analytically  !
 ! D104  D(19,22,68,16)       -121.3328         calculate D2E/DX2 analytically  !
 ! D105  D(19,22,68,17)        137.7694         calculate D2E/DX2 analytically  !
 ! D106  D(19,22,68,18)         -1.8341         calculate D2E/DX2 analytically  !
 ! D107  D(19,22,68,20)        -99.4403         calculate D2E/DX2 analytically  !
 ! D108  D(19,22,68,24)        -83.0616         calculate D2E/DX2 analytically  !
 ! D109  D(56,40,41,42)         68.517          calculate D2E/DX2 analytically  !
 ! D110  D(56,40,41,43)        -48.9703         calculate D2E/DX2 analytically  !
 ! D111  D(56,40,41,52)       -166.8006         calculate D2E/DX2 analytically  !
 ! D112  D(57,40,41,42)        -54.3008         calculate D2E/DX2 analytically  !
 ! D113  D(57,40,41,43)       -171.7881         calculate D2E/DX2 analytically  !
 ! D114  D(57,40,41,52)         70.3816         calculate D2E/DX2 analytically  !
 ! D115  D(69,40,41,42)        176.8368         calculate D2E/DX2 analytically  !
 ! D116  D(69,40,41,43)         59.3495         calculate D2E/DX2 analytically  !
 ! D117  D(69,40,41,52)        -58.4808         calculate D2E/DX2 analytically  !
 ! D118  D(41,40,57,58)       -167.5375         calculate D2E/DX2 analytically  !
 ! D119  D(41,40,57,59)         14.8929         calculate D2E/DX2 analytically  !
 ! D120  D(56,40,57,58)         71.2774         calculate D2E/DX2 analytically  !
 ! D121  D(56,40,57,59)       -106.2922         calculate D2E/DX2 analytically  !
 ! D122  D(69,40,57,58)        -43.2565         calculate D2E/DX2 analytically  !
 ! D123  D(69,40,57,59)        139.1739         calculate D2E/DX2 analytically  !
 ! D124  D(41,40,69,1)          73.9218         calculate D2E/DX2 analytically  !
 ! D125  D(56,40,69,1)        -176.477          calculate D2E/DX2 analytically  !
 ! D126  D(57,40,69,1)         -58.9531         calculate D2E/DX2 analytically  !
 ! D127  D(40,41,52,53)       -101.7562         calculate D2E/DX2 analytically  !
 ! D128  D(40,41,52,54)         70.4961         calculate D2E/DX2 analytically  !
 ! D129  D(42,41,52,53)         24.4727         calculate D2E/DX2 analytically  !
 ! D130  D(42,41,52,54)       -163.275          calculate D2E/DX2 analytically  !
 ! D131  D(43,41,52,53)        142.1618         calculate D2E/DX2 analytically  !
 ! D132  D(43,41,52,54)        -45.5859         calculate D2E/DX2 analytically  !
 ! D133  D(47,44,46,45)        178.7339         calculate D2E/DX2 analytically  !
 ! D134  D(47,44,46,49)         -0.0129         calculate D2E/DX2 analytically  !
 ! D135  D(54,44,46,45)         -1.8065         calculate D2E/DX2 analytically  !
 ! D136  D(54,44,46,49)        179.4468         calculate D2E/DX2 analytically  !
 ! D137  D(46,44,54,52)          5.8885         calculate D2E/DX2 analytically  !
 ! D138  D(46,44,54,55)        156.6875         calculate D2E/DX2 analytically  !
 ! D139  D(47,44,54,52)       -174.63           calculate D2E/DX2 analytically  !
 ! D140  D(47,44,54,55)        -23.8309         calculate D2E/DX2 analytically  !
 ! D141  D(48,45,46,44)       -179.9021         calculate D2E/DX2 analytically  !
 ! D142  D(48,45,46,49)         -1.1383         calculate D2E/DX2 analytically  !
 ! D143  D(53,45,46,44)         -0.98           calculate D2E/DX2 analytically  !
 ! D144  D(53,45,46,49)        177.7838         calculate D2E/DX2 analytically  !
 ! D145  D(46,45,53,52)         -0.6021         calculate D2E/DX2 analytically  !
 ! D146  D(48,45,53,52)        178.3797         calculate D2E/DX2 analytically  !
 ! D147  D(41,52,53,45)        177.0595         calculate D2E/DX2 analytically  !
 ! D148  D(54,52,53,45)          5.423          calculate D2E/DX2 analytically  !
 ! D149  D(41,52,54,44)       -179.4896         calculate D2E/DX2 analytically  !
 ! D150  D(41,52,54,55)         28.5127         calculate D2E/DX2 analytically  !
 ! D151  D(53,52,54,44)         -8.0907         calculate D2E/DX2 analytically  !
 ! D152  D(53,52,54,55)       -160.0885         calculate D2E/DX2 analytically  !
 ! D153  D(40,57,58,60)       -177.6914         calculate D2E/DX2 analytically  !
 ! D154  D(40,57,58,61)          2.4165         calculate D2E/DX2 analytically  !
 ! D155  D(59,57,58,60)          0.0258         calculate D2E/DX2 analytically  !
 ! D156  D(59,57,58,61)       -179.8663         calculate D2E/DX2 analytically  !
 ! D157  D(40,57,59,62)        176.7601         calculate D2E/DX2 analytically  !
 ! D158  D(40,57,59,63)         -4.0204         calculate D2E/DX2 analytically  !
 ! D159  D(58,57,59,62)         -0.7184         calculate D2E/DX2 analytically  !
 ! D160  D(58,57,59,63)        178.5011         calculate D2E/DX2 analytically  !
 ! D161  D(57,58,60,64)          0.7684         calculate D2E/DX2 analytically  !
 ! D162  D(57,58,60,65)       -179.5482         calculate D2E/DX2 analytically  !
 ! D163  D(61,58,60,64)       -179.3387         calculate D2E/DX2 analytically  !
 ! D164  D(61,58,60,65)          0.3447         calculate D2E/DX2 analytically  !
 ! D165  D(57,59,62,64)          0.6248         calculate D2E/DX2 analytically  !
 ! D166  D(57,59,62,66)       -179.7082         calculate D2E/DX2 analytically  !
 ! D167  D(63,59,62,64)       -178.6208         calculate D2E/DX2 analytically  !
 ! D168  D(63,59,62,66)          1.0462         calculate D2E/DX2 analytically  !
 ! D169  D(58,60,64,62)         -0.8639         calculate D2E/DX2 analytically  !
 ! D170  D(58,60,64,67)        179.4603         calculate D2E/DX2 analytically  !
 ! D171  D(65,60,64,62)        179.4556         calculate D2E/DX2 analytically  !
 ! D172  D(65,60,64,67)         -0.2201         calculate D2E/DX2 analytically  !
 ! D173  D(59,62,64,60)          0.1691         calculate D2E/DX2 analytically  !
 ! D174  D(59,62,64,67)        179.8447         calculate D2E/DX2 analytically  !
 ! D175  D(66,62,64,60)       -179.4944         calculate D2E/DX2 analytically  !
 ! D176  D(66,62,64,67)          0.1811         calculate D2E/DX2 analytically  !
 --------------------------------------------------------------------------------
 Trust Radius=3.00D-01 FncErr=1.00D-07 GrdErr=1.00D-06 EigMax=2.50D+02 EigMin=1.00D-04
 Number of steps in this run=    404 maximum allowed number of steps=    414.
 GradGradGradGradGradGradGradGradGradGradGradGradGradGradGradGradGradGrad

 Stoichiometry    C22H16F9N4O14S3Yb(2)
 Framework group  C1[X(C22H16F9N4O14S3Yb)]
 Deg. of freedom   201
 Full point group                 C1      NOp   1
 Largest Abelian subgroup         C1      NOp   1
 Largest concise Abelian subgroup C1      NOp   1
                         Standard orientation:                         
 ---------------------------------------------------------------------
 Center     Atomic      Atomic             Coordinates (Angstroms)
 Number     Number       Type             X           Y           Z
 ---------------------------------------------------------------------
      1          6           0       -1.821091   -0.578925    0.945110
      2          6           0       -1.664316    0.100803   -0.402768
      3          6           0       -0.533267   -1.050893    1.595120
      4          8           0        0.459525   -0.355127    1.634034
      5          8           0       -0.628557    0.693099   -0.723422
      6          8           0       -2.709990   -0.045977   -1.168852
      7          8           0       -0.647586   -2.216792    2.170461
      8          6           0       -2.706983    0.638429   -2.431484
      9          6           0        0.552077   -2.743557    2.767830
     10          1           0       -3.697871    0.475482   -2.869028
     11          1           0       -1.921954    0.211687   -3.068294
     12          1           0       -2.525875    1.709506   -2.264409
     13          1           0        0.286162   -3.726141    3.168809
     14          1           0        0.895967   -2.075090    3.567323
     15          1           0        1.327021   -2.822240    1.993975
     16          8           0        2.960347   -1.617956    0.535646
     17          8           0        1.500444   -0.666240   -2.342671
     18          8           0        1.064473    2.565696    0.973646
     19         16           0        1.954413    3.515339    0.269125
     20         16           0        3.688914   -0.973501    1.658233
     21         16           0        0.506555   -1.724929   -2.057813
     22          8           0        2.813045    2.779106   -0.691653
     23          8           0        2.589789    4.547821    1.060170
     24          8           0        3.390199    0.477825    1.679019
     25          8           0        3.680552   -1.673934    2.927395
     26          8           0        0.357384   -1.701735   -0.584833
     27          8           0       -0.679511   -1.727291   -2.905533
     28          6           0        1.371093   -3.285699   -2.483309
     29          6           0        5.434200   -1.022012    1.091025
     30          6           0        0.793370    4.414227   -0.835586
     31          9           0        0.575913   -4.306146   -2.183124
     32          9           0        2.494857   -3.395934   -1.799983
     33          9           0        1.640260   -3.315623   -3.778242
     34          9           0        5.537278   -0.397049   -0.076357
     35          9           0        5.829696   -2.277106    0.941354
     36          9           0        6.220666   -0.422285    1.970194
     37          9           0        0.080655    3.546230   -1.545626
     38          9           0        1.459511    5.200782   -1.666606
     39          9           0       -0.036391    5.158286   -0.114020
     40          6           0       -3.937531    0.402237    1.771219
     41          6           0       -4.774893   -0.920965    1.644610
     42          6           0       -6.227528   -0.695795    1.549201
     43          6           0       -4.537895   -1.687665    2.888678
     44          6           0       -2.610253   -3.028832   -0.556413
     45          6           0       -4.590840   -2.255373   -1.672763
     46          6           0       -3.375905   -2.991064   -1.694168
     47          1           0       -1.677651   -3.588177   -0.491385
     48          1           0       -5.238584   -2.193676   -2.549646
     49          1           0       -3.078911   -3.527284   -2.595488
     50          7           0       -7.369969   -0.521094    1.565645
     51          7           0       -4.359751   -2.257532    3.878423
     52          7           0       -4.281733   -1.702857    0.489430
     53          7           0       -5.019554   -1.626322   -0.604031
     54          6           0       -3.049848   -2.297510    0.578568
     55          1           0       -2.717445   -2.578713    1.581744
     56          1           0       -4.184429    0.805007    2.765693
     57          6           0       -4.091587    1.511802    0.750596
     58          6           0       -3.112680    2.517409    0.802093
     59          6           0       -5.138174    1.617210   -0.172089
     60          6           0       -3.181616    3.613344   -0.058224
     61          1           0       -2.288231    2.445788    1.517282
     62          6           0       -5.209382    2.724946   -1.021226
     63          1           0       -5.904067    0.847111   -0.260538
     64          6           0       -4.237021    3.724006   -0.967066
     65          1           0       -2.409612    4.382848   -0.011396
     66          1           0       -6.033741    2.797825   -1.733596
     67          1           0       -4.297302    4.585652   -1.635173
     68         70           0        1.793154    0.479532   -0.264209
     69          8           0       -2.594722   -0.057228    1.923810
 ---------------------------------------------------------------------
 Rotational constants (GHZ):           0.0655335           0.0412009           0.0335791
 General basis read from cards:  (5D, 7F)
 ======================================================================================================
                                       Pseudopotential Parameters
 ======================================================================================================
  Center     Atomic      Valence      Angular      Power
  Number     Number     Electrons     Momentum     of R      Exponent        Coefficient   SO-Coeffient
 ======================================================================================================
    1          6
                                   No pseudopotential on this center.
    2          6
                                   No pseudopotential on this center.
    3          6
                                   No pseudopotential on this center.
    4          8
                                   No pseudopotential on this center.
    5          8
                                   No pseudopotential on this center.
    6          8
                                   No pseudopotential on this center.
    7          8
                                   No pseudopotential on this center.
    8          6
                                   No pseudopotential on this center.
    9          6
                                   No pseudopotential on this center.
   10          1
                                   No pseudopotential on this center.
   11          1
                                   No pseudopotential on this center.
   12          1
                                   No pseudopotential on this center.
   13          1
                                   No pseudopotential on this center.
   14          1
                                   No pseudopotential on this center.
   15          1
                                   No pseudopotential on this center.
   16          8
                                   No pseudopotential on this center.
   17          8
                                   No pseudopotential on this center.
   18          8
                                   No pseudopotential on this center.
   19         16
                                   No pseudopotential on this center.
   20         16
                                   No pseudopotential on this center.
   21         16
                                   No pseudopotential on this center.
   22          8
                                   No pseudopotential on this center.
   23          8
                                   No pseudopotential on this center.
   24          8
                                   No pseudopotential on this center.
   25          8
                                   No pseudopotential on this center.
   26          8
                                   No pseudopotential on this center.
   27          8
                                   No pseudopotential on this center.
   28          6
                                   No pseudopotential on this center.
   29          6
                                   No pseudopotential on this center.
   30          6
                                   No pseudopotential on this center.
   31          9
                                   No pseudopotential on this center.
   32          9
                                   No pseudopotential on this center.
   33          9
                                   No pseudopotential on this center.
   34          9
                                   No pseudopotential on this center.
   35          9
                                   No pseudopotential on this center.
   36          9
                                   No pseudopotential on this center.
   37          9
                                   No pseudopotential on this center.
   38          9
                                   No pseudopotential on this center.
   39          9
                                   No pseudopotential on this center.
   40          6
                                   No pseudopotential on this center.
   41          6
                                   No pseudopotential on this center.
   42          6
                                   No pseudopotential on this center.
   43          6
                                   No pseudopotential on this center.
   44          6
                                   No pseudopotential on this center.
   45          6
                                   No pseudopotential on this center.
   46          6
                                   No pseudopotential on this center.
   47          1
                                   No pseudopotential on this center.
   48          1
                                   No pseudopotential on this center.
   49          1
                                   No pseudopotential on this center.
   50          7
                                   No pseudopotential on this center.
   51          7
                                   No pseudopotential on this center.
   52          7
                                   No pseudopotential on this center.
   53          7
                                   No pseudopotential on this center.
   54          6
                                   No pseudopotential on this center.
   55          1
                                   No pseudopotential on this center.
   56          1
                                   No pseudopotential on this center.
   57          6
                                   No pseudopotential on this center.
   58          6
                                   No pseudopotential on this center.
   59          6
                                   No pseudopotential on this center.
   60          6
                                   No pseudopotential on this center.
   61          1
                                   No pseudopotential on this center.
   62          6
                                   No pseudopotential on this center.
   63          1
                                   No pseudopotential on this center.
   64          6
                                   No pseudopotential on this center.
   65          1
                                   No pseudopotential on this center.
   66          1
                                   No pseudopotential on this center.
   67          1
                                   No pseudopotential on this center.
   68         70           42
                                      H and up 
                                                     2        1.0000000        0.00000000    0.00000000
                                      S - H
                                                     2       32.4244840      891.01377700    0.00000000
                                      P - H
                                                     2       18.6562320      264.03695300    0.00000000
                                      D - H
                                                     2       10.4902220       73.92391900    0.00000000
                                      F - H
                                                     2       20.7741830      -39.59217300    0.00000000
                                      G - H
                                                     2       28.4310280      -34.63863800    0.00000000
   69          8
                                   No pseudopotential on this center.
 ======================================================================================================
 There are   991 symmetry adapted cartesian basis functions of A   symmetry.
 There are   916 symmetry adapted basis functions of A   symmetry.
   916 basis functions,  1662 primitive gaussians,   991 cartesian basis functions
   230 alpha electrons      229 beta electrons
       nuclear repulsion energy     11720.4345522661 Hartrees.
 NAtoms=   69 NActive=   69 NUniq=   69 SFac= 1.00D+00 NAtFMM=   60 NAOKFM=T Big=T
 Integral buffers will be    131072 words long.
 Raffenetti 2 integral format.
 Two-electron integral symmetry is turned on.
 Force inversion solution in PCM.
 ------------------------------------------------------------------------------
 Polarizable Continuum Model (PCM)
 =================================
 Model                : PCM.
 Atomic radii         : SMD-Coulomb.
 Polarization charges : Total charges.
 Charge compensation  : None.
 Solution method      : Matrix inversion.
 Cavity type          : VdW (van der Waals Surface) (Alpha=1.000).
 Cavity algorithm     : GePol (No added spheres)
                        Default sphere list used, NSphG=   69.
                        Lebedev-Laikov grids with approx.  5.0 points / Ang**2.
                        Smoothing algorithm: York/Karplus (Gamma=1.0000).
                        Polarization charges: spherical gaussians, with
                                              point-specific exponents (IZeta= 3).
                        Self-potential: point-specific (ISelfS= 7).
                        Self-field    : sphere-specific E.n sum rule (ISelfD= 2).
 1st derivatives      : Analytical E(r).r(x)/FMM algorithm (CHGder, D1EAlg=3).
                        Cavity 1st derivative terms included.
 2nd derivatives      : Analytical E(r).r(xy)/FMM algorithm (CHGder, D2EAlg=3).
                        Cavity 2nd derivative terms included.
 Solvent              : DiChloroEthane, Eps=  10.125000 Eps(inf)=   2.087447
 ------------------------------------------------------------------------------
 ------------------------------------------------------------------------------
 Atomic radii for non-electrostatic terms: SMD-CDS.
 ------------------------------------------------------------------------------
 Nuclear repulsion after PCM non-electrostatic terms =    11720.4417973893 Hartrees.
 One-electron integrals computed using PRISM.
   1 Symmetry operations used in ECPInt.
 ECPInt:  NShTT=   77815 NPrTT=  297642 LenC2=   61103 LenP2D=  142694.
 LDataN:  DoStor=T MaxTD1= 9 Len=  602
 NBasis=   916 RedAO= T EigKep=  2.12D-04  NBF=   916
 NBsUse=   916 1.00D-06 EigRej= -1.00D+00 NBFU=   916
 Defaulting to unpruned grid for atomic number  70.
 ExpMin= 2.50D-02 ExpMax= 9.20D+04 ExpMxC= 1.38D+04 IAcc=3 IRadAn=         5 AccDes= 0.00D+00
 Harris functional with IExCor= 1009 and IRadAn=       5 diagonalized for initial guess.
 HarFok:  IExCor= 1009 AccDes= 0.00D+00 IRadAn=         5 IDoV= 1 UseB2=F ITyADJ=14
 ICtDFT=  3500011 ScaDFX=  1.000000  1.000000  1.000000  1.000000
 Defaulting to unpruned grid for atomic number  70.
 FoFCou: FMM=F IPFlag=           0 FMFlag=      100000 FMFlg1=        2001
         NFxFlg=           0 DoJE=T BraDBF=F KetDBF=T FulRan=T
         wScrn=  0.000000 ICntrl=       500 IOpCl=  0 I1Cent=   200000004 NGrid=           0
         NMat0=    1 NMatS0=      1 NMatT0=    0 NMatD0=    1 NMtDS0=    0 NMtDT0=    0
 Petite list used in FoFCou.
 Initial guess <Sx>= 0.0000 <Sy>= 0.0000 <Sz>= 0.5000 <S**2>= 0.7500 S= 0.5000
 Requested convergence on RMS density matrix=1.00D-08 within 500 cycles.
 Requested convergence on MAX density matrix=1.00D-06.
 Requested convergence on             energy=1.00D-06.
 No special actions if energy rises.
 Defaulting to unpruned grid for atomic number  70.
 Defaulting to unpruned grid for atomic number  70.
 Defaulting to unpruned grid for atomic number  70.
 Defaulting to unpruned grid for atomic number  70.
 Defaulting to unpruned grid for atomic number  70.
 Defaulting to unpruned grid for atomic number  70.
 Defaulting to unpruned grid for atomic number  70.
 Defaulting to unpruned grid for atomic number  70.
 Defaulting to unpruned grid for atomic number  70.
 Defaulting to unpruned grid for atomic number  70.
 Defaulting to unpruned grid for atomic number  70.
 Defaulting to unpruned grid for atomic number  70.
 Defaulting to unpruned grid for atomic number  70.
 Defaulting to unpruned grid for atomic number  70.
 Defaulting to unpruned grid for atomic number  70.
 Defaulting to unpruned grid for atomic number  70.
 Defaulting to unpruned grid for atomic number  70.
 Defaulting to unpruned grid for atomic number  70.
 Defaulting to unpruned grid for atomic number  70.
 Defaulting to unpruned grid for atomic number  70.
 Defaulting to unpruned grid for atomic number  70.
 Defaulting to unpruned grid for atomic number  70.
 Defaulting to unpruned grid for atomic number  70.
 Defaulting to unpruned grid for atomic number  70.
 Inv3:  Mode=1 IEnd=    68230083.
 Iteration    1 A*A^-1 deviation from unit magnitude is 9.55D-15 for   4747.
 Iteration    1 A*A^-1 deviation from orthogonality  is 1.07D-14 for   4737   4230.
 Iteration    1 A^-1*A deviation from unit magnitude is 9.55D-15 for   4747.
 Iteration    1 A^-1*A deviation from orthogonality  is 1.63D-12 for   1853   1849.
 EnCoef did     4 forward-backward iterations
 EnCoef did   100 forward-backward iterations
 EnCoef did     6 forward-backward iterations
 Restarting incremental Fock formation.
 Error on total polarization charges =  0.02907
 SCF Done:  E(UMN15) =  -5368.75301395     A.U. after   23 cycles
            NFock= 23  Conv=0.63D-08     -V/T= 2.0908
 <Sx>= 0.0000 <Sy>= 0.0000 <Sz>= 0.5000 <S**2>= 0.7607 S= 0.5053
 <L.S>=  0.00000000000    
 SMD-CDS (non-electrostatic) energy       (kcal/mol) =       4.55
 (included in total energy above)
 Annihilation of the first spin contaminant:
 S**2 before annihilation     0.7607,   after     0.7501
 DoSCS=F DFT=T ScalE2(SS,OS)=  1.000000  1.000000
 Range of M.O.s used for correlation:     1   916
 NBasis=   916 NAE=   230 NBE=   229 NFC=     0 NFV=     0
 NROrb=    916 NOA=   230 NOB=   229 NVA=   686 NVB=   687

 **** Warning!!: The largest alpha MO coefficient is  0.12753208D+02


 **** Warning!!: The largest beta MO coefficient is  0.12753207D+02

   1 Symmetry operations used in ECPInt.
 ECPInt:  NShTT=   77815 NPrTT=  297642 LenC2=   61103 LenP2D=  142694.
 LDataN:  DoStor=T MaxTD1=10 Len=  848
 Symmetrizing basis deriv contribution to polar:
 IMax=3 JMax=2 DiffMx= 0.00D+00
 G2DrvN: will do    70 centers at a time, making    1 passes.
 Calling FoFCou, ICntrl=  3107 FMM=T I1Cent=   0 AccDes= 0.00D+00.
 Defaulting to unpruned grid for atomic number  70.
 Defaulting to unpruned grid for atomic number  70.
 Defaulting to unpruned grid for atomic number  70.
 Defaulting to unpruned grid for atomic number  70.
 Defaulting to unpruned grid for atomic number  70.
 Defaulting to unpruned grid for atomic number  70.
 Defaulting to unpruned grid for atomic number  70.
 Defaulting to unpruned grid for atomic number  70.
 Defaulting to unpruned grid for atomic number  70.
 Defaulting to unpruned grid for atomic number  70.
 Defaulting to unpruned grid for atomic number  70.
 Defaulting to unpruned grid for atomic number  70.
 Defaulting to unpruned grid for atomic number  70.
 Defaulting to unpruned grid for atomic number  70.
 Defaulting to unpruned grid for atomic number  70.
 Defaulting to unpruned grid for atomic number  70.
 Defaulting to unpruned grid for atomic number  70.
 Defaulting to unpruned grid for atomic number  70.
 Defaulting to unpruned grid for atomic number  70.
 Defaulting to unpruned grid for atomic number  70.
 Defaulting to unpruned grid for atomic number  70.
 Defaulting to unpruned grid for atomic number  70.
 Defaulting to unpruned grid for atomic number  70.
 Defaulting to unpruned grid for atomic number  70.
 NEqPCM:  Using equilibrium solvation (IEInf=0, Eps=  10.1250, EpsInf=   2.0874)
 G2PCM: DoFxE=T DoFxN=T DoGrad=T DoDP/DQ/DG/TGxP=FFFF NFrqRd=   0 IEInf=0 SqF1=F DoCFld=F IF1Alg=4.
 End of G2Drv F.D. properties file   721 does not exist.
 End of G2Drv F.D. properties file   722 does not exist.
 End of G2Drv F.D. properties file   788 does not exist.
          IDoAtm=11111111111111111111111111111111111111111111111111
          IDoAtm=1111111111111111111
 NEqPCM:  Using equilibrium solvation (IEInf=0, Eps=  10.1250, EpsInf=   2.0874)
          Differentiating once with respect to nuclear coordinates.
 Defaulting to unpruned grid for atomic number  70.
 CalDSu exits because no D1Ps are significant.
 Defaulting to unpruned grid for atomic number  70.
 Defaulting to unpruned grid for atomic number  70.
 Defaulting to unpruned grid for atomic number  70.
 Defaulting to unpruned grid for atomic number  70.
 Defaulting to unpruned grid for atomic number  70.
 Defaulting to unpruned grid for atomic number  70.
 Defaulting to unpruned grid for atomic number  70.
 Defaulting to unpruned grid for atomic number  70.
 Defaulting to unpruned grid for atomic number  70.
 Defaulting to unpruned grid for atomic number  70.
 Defaulting to unpruned grid for atomic number  70.
 Defaulting to unpruned grid for atomic number  70.
 Defaulting to unpruned grid for atomic number  70.
 Defaulting to unpruned grid for atomic number  70.
 Defaulting to unpruned grid for atomic number  70.
 Defaulting to unpruned grid for atomic number  70.
 Defaulting to unpruned grid for atomic number  70.
 Defaulting to unpruned grid for atomic number  70.
 Defaulting to unpruned grid for atomic number  70.
 Defaulting to unpruned grid for atomic number  70.
 Defaulting to unpruned grid for atomic number  70.
 Defaulting to unpruned grid for atomic number  70.
 Defaulting to unpruned grid for atomic number  70.
 Defaulting to unpruned grid for atomic number  70.
          There are   210 degrees of freedom in the 1st order CPHF.  IDoFFX=6 NUNeed=     0.
    207 vectors produced by pass  0 Test12= 3.15D-13 1.00D-09 XBig12= 3.67D-01 1.49D-01.
 AX will form    72 AO Fock derivatives at one time.
    204 vectors produced by pass  1 Test12= 3.15D-13 1.00D-09 XBig12= 1.69D-01 4.02D-02.
    204 vectors produced by pass  2 Test12= 3.15D-13 1.00D-09 XBig12= 3.61D-03 6.89D-03.
    204 vectors produced by pass  3 Test12= 3.15D-13 1.00D-09 XBig12= 5.86D-05 1.15D-03.
    204 vectors produced by pass  4 Test12= 3.15D-13 1.00D-09 XBig12= 6.74D-07 1.14D-04.
    204 vectors produced by pass  5 Test12= 3.15D-13 1.00D-09 XBig12= 6.87D-09 8.83D-06.
    199 vectors produced by pass  6 Test12= 3.15D-13 1.00D-09 XBig12= 7.68D-11 8.35D-07.
    123 vectors produced by pass  7 Test12= 3.15D-13 1.00D-09 XBig12= 7.10D-13 1.22D-07.
     35 vectors produced by pass  8 Test12= 3.15D-13 1.00D-09 XBig12= 7.16D-15 4.56D-09.
      2 vectors produced by pass  9 Test12= 3.15D-13 1.00D-09 XBig12= 1.36D-15 1.13D-09.
 InvSVY:  IOpt=1 It=  1 EMax= 1.33D-15
 Solved reduced A of dimension  1586 with   210 vectors.
 End of Minotr F.D. properties file   721 does not exist.
 End of Minotr F.D. properties file   722 does not exist.
 End of Minotr F.D. properties file   788 does not exist.

 **********************************************************************

            Population analysis using the SCF density.

 **********************************************************************

 Orbital symmetries:
 Alpha Orbitals:
       Occupied  (A) (A) (A) (A) (A) (A) (A) (A) (A) (A) (A) (A)
                 (A) (A) (A) (A) (A) (A) (A) (A) (A) (A) (A) (A)
                 (A) (A) (A) (A) (A) (A) (A) (A) (A) (A) (A) (A)
                 (A) (A) (A) (A) (A) (A) (A) (A) (A) (A) (A) (A)
                 (A) (A) (A) (A) (A) (A) (A) (A) (A) (A) (A) (A)
                 (A) (A) (A) (A) (A) (A) (A) (A) (A) (A) (A) (A)
                 (A) (A) (A) (A) (A) (A) (A) (A) (A) (A) (A) (A)
                 (A) (A) (A) (A) (A) (A) (A) (A) (A) (A) (A) (A)
                 (A) (A) (A) (A) (A) (A) (A) (A) (A) (A) (A) (A)
                 (A) (A) (A) (A) (A) (A) (A) (A) (A) (A) (A) (A)
                 (A) (A) (A) (A) (A) (A) (A) (A) (A) (A) (A) (A)
                 (A) (A) (A) (A) (A) (A) (A) (A) (A) (A) (A) (A)
                 (A) (A) (A) (A) (A) (A) (A) (A) (A) (A) (A) (A)
                 (A) (A) (A) (A) (A) (A) (A) (A) (A) (A) (A) (A)
                 (A) (A) (A) (A) (A) (A) (A) (A) (A) (A) (A) (A)
                 (A) (A) (A) (A) (A) (A) (A) (A) (A) (A) (A) (A)
                 (A) (A) (A) (A) (A) (A) (A) (A) (A) (A) (A) (A)
                 (A) (A) (A) (A) (A) (A) (A) (A) (A) (A) (A) (A)
                 (A) (A) (A) (A) (A) (A) (A) (A) (A) (A) (A) (A)
                 (A) (A)
       Virtual   (A) (A) (A) (A) (A) (A) (A) (A) (A) (A) (A) (A)
                 (A) (A) (A) (A) (A) (A) (A) (A) (A) (A) (A) (A)
                 (A) (A) (A) (A) (A) (A) (A) (A) (A) (A) (A) (A)
                 (A) (A) (A) (A) (A) (A) (A) (A) (A) (A) (A) (A)
                 (A) (A) (A) (A) (A) (A) (A) (A) (A) (A) (A) (A)
                 (A) (A) (A) (A) (A) (A) (A) (A) (A) (A) (A) (A)
                 (A) (A) (A) (A) (A) (A) (A) (A) (A) (A) (A) (A)
                 (A) (A) (A) (A) (A) (A) (A) (A) (A) (A) (A) (A)
                 (A) (A) (A) (A) (A) (A) (A) (A) (A) (A) (A) (A)
                 (A) (A) (A) (A) (A) (A) (A) (A) (A) (A) (A) (A)
                 (A) (A) (A) (A) (A) (A) (A) (A) (A) (A) (A) (A)
                 (A) (A) (A) (A) (A) (A) (A) (A) (A) (A) (A) (A)
                 (A) (A) (A) (A) (A) (A) (A) (A) (A) (A) (A) (A)
                 (A) (A) (A) (A) (A) (A) (A) (A) (A) (A) (A) (A)
                 (A) (A) (A) (A) (A) (A) (A) (A) (A) (A) (A) (A)
                 (A) (A) (A) (A) (A) (A) (A) (A) (A) (A) (A) (A)
                 (A) (A) (A) (A) (A) (A) (A) (A) (A) (A) (A) (A)
                 (A) (A) (A) (A) (A) (A) (A) (A) (A) (A) (A) (A)
                 (A) (A) (A) (A) (A) (A) (A) (A) (A) (A) (A) (A)
                 (A) (A) (A) (A) (A) (A) (A) (A) (A) (A) (A) (A)
                 (A) (A) (A) (A) (A) (A) (A) (A) (A) (A) (A) (A)
                 (A) (A) (A) (A) (A) (A) (A) (A) (A) (A) (A) (A)
                 (A) (A) (A) (A) (A) (A) (A) (A) (A) (A) (A) (A)
                 (A) (A) (A) (A) (A) (A) (A) (A) (A) (A) (A) (A)
                 (A) (A) (A) (A) (A) (A) (A) (A) (A) (A) (A) (A)
                 (A) (A) (A) (A) (A) (A) (A) (A) (A) (A) (A) (A)
                 (A) (A) (A) (A) (A) (A) (A) (A) (A) (A) (A) (A)
                 (A) (A) (A) (A) (A) (A) (A) (A) (A) (A) (A) (A)
                 (A) (A) (A) (A) (A) (A) (A) (A) (A) (A) (A) (A)
                 (A) (A) (A) (A) (A) (A) (A) (A) (A) (A) (A) (A)
                 (A) (A) (A) (A) (A) (A) (A) (A) (A) (A) (A) (A)
                 (A) (A) (A) (A) (A) (A) (A) (A) (A) (A) (A) (A)
                 (A) (A) (A) (A) (A) (A) (A) (A) (A) (A) (A) (A)
                 (A) (A) (A) (A) (A) (A) (A) (A) (A) (A) (A) (A)
                 (A) (A) (A) (A) (A) (A) (A) (A) (A) (A) (A) (A)
                 (A) (A) (A) (A) (A) (A) (A) (A) (A) (A) (A) (A)
                 (A) (A) (A) (A) (A) (A) (A) (A) (A) (A) (A) (A)
                 (A) (A) (A) (A) (A) (A) (A) (A) (A) (A) (A) (A)
                 (A) (A) (A) (A) (A) (A) (A) (A) (A) (A) (A) (A)
                 (A) (A) (A) (A) (A) (A) (A) (A) (A) (A) (A) (A)
                 (A) (A) (A) (A) (A) (A) (A) (A) (A) (A) (A) (A)
                 (A) (A) (A) (A) (A) (A) (A) (A) (A) (A) (A) (A)
                 (A) (A) (A) (A) (A) (A) (A) (A) (A) (A) (A) (A)
                 (A) (A) (A) (A) (A) (A) (A) (A) (A) (A) (A) (A)
                 (A) (A) (A) (A) (A) (A) (A) (A) (A) (A) (A) (A)
                 (A) (A) (A) (A) (A) (A) (A) (A) (A) (A) (A) (A)
                 (A) (A) (A) (A) (A) (A) (A) (A) (A) (A) (A) (A)
                 (A) (A) (A) (A) (A) (A) (A) (A) (A) (A) (A) (A)
                 (A) (A) (A) (A) (A) (A) (A) (A) (A) (A) (A) (A)
                 (A) (A) (A) (A) (A) (A) (A) (A) (A) (A) (A) (A)
                 (A) (A) (A) (A) (A) (A) (A) (A) (A) (A) (A) (A)
                 (A) (A) (A) (A) (A) (A) (A) (A) (A) (A) (A) (A)
                 (A) (A) (A) (A) (A) (A) (A) (A) (A) (A) (A) (A)
                 (A) (A) (A) (A) (A) (A) (A) (A) (A) (A) (A) (A)
                 (A) (A) (A) (A) (A) (A) (A) (A) (A) (A) (A) (A)
                 (A) (A) (A) (A) (A) (A) (A) (A) (A) (A) (A) (A)
                 (A) (A) (A) (A) (A) (A) (A) (A) (A) (A) (A) (A)
                 (A) (A)
 Beta  Orbitals:
       Occupied  (A) (A) (A) (A) (A) (A) (A) (A) (A) (A) (A) (A)
                 (A) (A) (A) (A) (A) (A) (A) (A) (A) (A) (A) (A)
                 (A) (A) (A) (A) (A) (A) (A) (A) (A) (A) (A) (A)
                 (A) (A) (A) (A) (A) (A) (A) (A) (A) (A) (A) (A)
                 (A) (A) (A) (A) (A) (A) (A) (A) (A) (A) (A) (A)
                 (A) (A) (A) (A) (A) (A) (A) (A) (A) (A) (A) (A)
                 (A) (A) (A) (A) (A) (A) (A) (A) (A) (A) (A) (A)
                 (A) (A) (A) (A) (A) (A) (A) (A) (A) (A) (A) (A)
                 (A) (A) (A) (A) (A) (A) (A) (A) (A) (A) (A) (A)
                 (A) (A) (A) (A) (A) (A) (A) (A) (A) (A) (A) (A)
                 (A) (A) (A) (A) (A) (A) (A) (A) (A) (A) (A) (A)
                 (A) (A) (A) (A) (A) (A) (A) (A) (A) (A) (A) (A)
                 (A) (A) (A) (A) (A) (A) (A) (A) (A) (A) (A) (A)
                 (A) (A) (A) (A) (A) (A) (A) (A) (A) (A) (A) (A)
                 (A) (A) (A) (A) (A) (A) (A) (A) (A) (A) (A) (A)
                 (A) (A) (A) (A) (A) (A) (A) (A) (A) (A) (A) (A)
                 (A) (A) (A) (A) (A) (A) (A) (A) (A) (A) (A) (A)
                 (A) (A) (A) (A) (A) (A) (A) (A) (A) (A) (A) (A)
                 (A) (A) (A) (A) (A) (A) (A) (A) (A) (A) (A) (A)
                 (A)
       Virtual   (A) (A) (A) (A) (A) (A) (A) (A) (A) (A) (A) (A)
                 (A) (A) (A) (A) (A) (A) (A) (A) (A) (A) (A) (A)
                 (A) (A) (A) (A) (A) (A) (A) (A) (A) (A) (A) (A)
                 (A) (A) (A) (A) (A) (A) (A) (A) (A) (A) (A) (A)
                 (A) (A) (A) (A) (A) (A) (A) (A) (A) (A) (A) (A)
                 (A) (A) (A) (A) (A) (A) (A) (A) (A) (A) (A) (A)
                 (A) (A) (A) (A) (A) (A) (A) (A) (A) (A) (A) (A)
                 (A) (A) (A) (A) (A) (A) (A) (A) (A) (A) (A) (A)
                 (A) (A) (A) (A) (A) (A) (A) (A) (A) (A) (A) (A)
                 (A) (A) (A) (A) (A) (A) (A) (A) (A) (A) (A) (A)
                 (A) (A) (A) (A) (A) (A) (A) (A) (A) (A) (A) (A)
                 (A) (A) (A) (A) (A) (A) (A) (A) (A) (A) (A) (A)
                 (A) (A) (A) (A) (A) (A) (A) (A) (A) (A) (A) (A)
                 (A) (A) (A) (A) (A) (A) (A) (A) (A) (A) (A) (A)
                 (A) (A) (A) (A) (A) (A) (A) (A) (A) (A) (A) (A)
                 (A) (A) (A) (A) (A) (A) (A) (A) (A) (A) (A) (A)
                 (A) (A) (A) (A) (A) (A) (A) (A) (A) (A) (A) (A)
                 (A) (A) (A) (A) (A) (A) (A) (A) (A) (A) (A) (A)
                 (A) (A) (A) (A) (A) (A) (A) (A) (A) (A) (A) (A)
                 (A) (A) (A) (A) (A) (A) (A) (A) (A) (A) (A) (A)
                 (A) (A) (A) (A) (A) (A) (A) (A) (A) (A) (A) (A)
                 (A) (A) (A) (A) (A) (A) (A) (A) (A) (A) (A) (A)
                 (A) (A) (A) (A) (A) (A) (A) (A) (A) (A) (A) (A)
                 (A) (A) (A) (A) (A) (A) (A) (A) (A) (A) (A) (A)
                 (A) (A) (A) (A) (A) (A) (A) (A) (A) (A) (A) (A)
                 (A) (A) (A) (A) (A) (A) (A) (A) (A) (A) (A) (A)
                 (A) (A) (A) (A) (A) (A) (A) (A) (A) (A) (A) (A)
                 (A) (A) (A) (A) (A) (A) (A) (A) (A) (A) (A) (A)
                 (A) (A) (A) (A) (A) (A) (A) (A) (A) (A) (A) (A)
                 (A) (A) (A) (A) (A) (A) (A) (A) (A) (A) (A) (A)
                 (A) (A) (A) (A) (A) (A) (A) (A) (A) (A) (A) (A)
                 (A) (A) (A) (A) (A) (A) (A) (A) (A) (A) (A) (A)
                 (A) (A) (A) (A) (A) (A) (A) (A) (A) (A) (A) (A)
                 (A) (A) (A) (A) (A) (A) (A) (A) (A) (A) (A) (A)
                 (A) (A) (A) (A) (A) (A) (A) (A) (A) (A) (A) (A)
                 (A) (A) (A) (A) (A) (A) (A) (A) (A) (A) (A) (A)
                 (A) (A) (A) (A) (A) (A) (A) (A) (A) (A) (A) (A)
                 (A) (A) (A) (A) (A) (A) (A) (A) (A) (A) (A) (A)
                 (A) (A) (A) (A) (A) (A) (A) (A) (A) (A) (A) (A)
                 (A) (A) (A) (A) (A) (A) (A) (A) (A) (A) (A) (A)
                 (A) (A) (A) (A) (A) (A) (A) (A) (A) (A) (A) (A)
                 (A) (A) (A) (A) (A) (A) (A) (A) (A) (A) (A) (A)
                 (A) (A) (A) (A) (A) (A) (A) (A) (A) (A) (A) (A)
                 (A) (A) (A) (A) (A) (A) (A) (A) (A) (A) (A) (A)
                 (A) (A) (A) (A) (A) (A) (A) (A) (A) (A) (A) (A)
                 (A) (A) (A) (A) (A) (A) (A) (A) (A) (A) (A) (A)
                 (A) (A) (A) (A) (A) (A) (A) (A) (A) (A) (A) (A)
                 (A) (A) (A) (A) (A) (A) (A) (A) (A) (A) (A) (A)
                 (A) (A) (A) (A) (A) (A) (A) (A) (A) (A) (A) (A)
                 (A) (A) (A) (A) (A) (A) (A) (A) (A) (A) (A) (A)
                 (A) (A) (A) (A) (A) (A) (A) (A) (A) (A) (A) (A)
                 (A) (A) (A) (A) (A) (A) (A) (A) (A) (A) (A) (A)
                 (A) (A) (A) (A) (A) (A) (A) (A) (A) (A) (A) (A)
                 (A) (A) (A) (A) (A) (A) (A) (A) (A) (A) (A) (A)
                 (A) (A) (A) (A) (A) (A) (A) (A) (A) (A) (A) (A)
                 (A) (A) (A) (A) (A) (A) (A) (A) (A) (A) (A) (A)
                 (A) (A) (A) (A) (A) (A) (A) (A) (A) (A) (A) (A)
                 (A) (A) (A)
 The electronic state is 2-A.
 Alpha  occ. eigenvalues --  -88.04727 -88.02963 -88.02948 -24.33621 -24.33518
 Alpha  occ. eigenvalues --  -24.33302 -24.32726 -24.32697 -24.32526 -24.32489
 Alpha  occ. eigenvalues --  -24.32364 -24.32327 -18.92899 -18.90941 -18.90001
 Alpha  occ. eigenvalues --  -18.85726 -18.84598 -18.82567 -18.82368 -18.81706
 Alpha  occ. eigenvalues --  -18.80930 -18.80781 -18.80769 -18.80648 -18.80381
 Alpha  occ. eigenvalues --  -18.80190 -16.27523 -14.28480 -14.21103 -14.16003
 Alpha  occ. eigenvalues --  -14.15705 -10.90901 -10.90871 -10.90831 -10.32715
 Alpha  occ. eigenvalues --  -10.31106 -10.31003 -10.24672 -10.24239 -10.23557
 Alpha  occ. eigenvalues --  -10.20615 -10.19362 -10.18772 -10.15111 -10.15088
 Alpha  occ. eigenvalues --  -10.15073 -10.13108 -10.12557 -10.11760 -10.11056
 Alpha  occ. eigenvalues --  -10.09578 -10.07695 -10.07548 -10.06963 -10.06891
 Alpha  occ. eigenvalues --  -10.06801  -7.94458  -7.92703  -7.92690  -6.13961
 Alpha  occ. eigenvalues --   -6.13923  -6.13872  -6.12193  -6.12184  -6.12178
 Alpha  occ. eigenvalues --   -6.12165  -6.12126  -6.12118  -4.99196  -4.99142
 Alpha  occ. eigenvalues --   -4.99124  -4.99107  -4.99087  -1.94726  -1.37137
 Alpha  occ. eigenvalues --   -1.36108  -1.35964  -1.27154  -1.27057  -1.26149
 Alpha  occ. eigenvalues --   -1.26095  -1.25974  -1.25966  -1.20554  -1.18907
 Alpha  occ. eigenvalues --   -1.18553  -1.17888  -1.17024  -1.16997  -1.16566
 Alpha  occ. eigenvalues --   -1.09600  -1.08414  -1.05885  -1.04174  -1.03950
 Alpha  occ. eigenvalues --   -1.03511  -1.02528  -1.02408  -1.01330  -0.99565
 Alpha  occ. eigenvalues --   -0.99376  -0.98904  -0.98443  -0.97267  -0.93919
 Alpha  occ. eigenvalues --   -0.91853  -0.89733  -0.86089  -0.82896  -0.80771
 Alpha  occ. eigenvalues --   -0.79620  -0.79431  -0.78954  -0.77923  -0.77860
 Alpha  occ. eigenvalues --   -0.77694  -0.75851  -0.73302  -0.71403  -0.70120
 Alpha  occ. eigenvalues --   -0.70030  -0.68886  -0.68304  -0.67170  -0.67121
 Alpha  occ. eigenvalues --   -0.67021  -0.66224  -0.66143  -0.66099  -0.66002
 Alpha  occ. eigenvalues --   -0.65956  -0.65038  -0.63923  -0.62993  -0.62754
 Alpha  occ. eigenvalues --   -0.61809  -0.61063  -0.59900  -0.59050  -0.58882
 Alpha  occ. eigenvalues --   -0.58716  -0.58094  -0.57609  -0.56949  -0.56592
 Alpha  occ. eigenvalues --   -0.56160  -0.55888  -0.55354  -0.55011  -0.54493
 Alpha  occ. eigenvalues --   -0.54376  -0.54286  -0.54198  -0.54093  -0.53454
 Alpha  occ. eigenvalues --   -0.53362  -0.52996  -0.52592  -0.52194  -0.52106
 Alpha  occ. eigenvalues --   -0.51600  -0.51531  -0.51403  -0.51289  -0.51252
 Alpha  occ. eigenvalues --   -0.50916  -0.50744  -0.50685  -0.50366  -0.50199
 Alpha  occ. eigenvalues --   -0.49931  -0.49729  -0.49675  -0.49617  -0.48990
 Alpha  occ. eigenvalues --   -0.48598  -0.48110  -0.47808  -0.47610  -0.47509
 Alpha  occ. eigenvalues --   -0.47244  -0.46711  -0.46293  -0.45935  -0.45477
 Alpha  occ. eigenvalues --   -0.44976  -0.44146  -0.44009  -0.43754  -0.43431
 Alpha  occ. eigenvalues --   -0.42846  -0.42551  -0.42291  -0.42091  -0.41753
 Alpha  occ. eigenvalues --   -0.41393  -0.41199  -0.40846  -0.40358  -0.39866
 Alpha  occ. eigenvalues --   -0.39725  -0.39602  -0.39507  -0.39198  -0.38930
 Alpha  occ. eigenvalues --   -0.38443  -0.38004  -0.37929  -0.37423  -0.36879
[...]
 Rare condition: small coef for last iteration:  0.000D+00
 Rare condition: small coef for last iteration:  0.000D+00
 Rare condition: small coef for last iteration:  0.000D+00
 Rare condition: small coef for last iteration:  0.000D+00
 Restarting incremental Fock formation.
 Rare condition: small coef for last iteration:  0.000D+00
 Rare condition: small coef for last iteration:  0.000D+00
 Rare condition: small coef for last iteration:  0.000D+00
 Rare condition: small coef for last iteration:  0.000D+00
 Rare condition: small coef for last iteration:  0.000D+00
 Rare condition: small coef for last iteration:  0.000D+00
 Rare condition: small coef for last iteration:  0.000D+00
 Rare condition: small coef for last iteration:  0.000D+00
 Rare condition: small coef for last iteration:  0.000D+00
 Rare condition: small coef for last iteration:  0.000D+00
 Rare condition: small coef for last iteration:  0.000D+00
 Restarting incremental Fock formation.
 Rare condition: small coef for last iteration:  0.000D+00
 Rare condition: small coef for last iteration:  0.000D+00
 Rare condition: small coef for last iteration:  0.000D+00
 Rare condition: small coef for last iteration:  0.000D+00
 Rare condition: small coef for last iteration:  0.000D+00
 Rare condition: small coef for last iteration:  0.000D+00
 Rare condition: small coef for last iteration:  0.000D+00
 Rare condition: small coef for last iteration:  0.000D+00
 Rare condition: small coef for last iteration:  0.000D+00
 Rare condition: small coef for last iteration:  0.000D+00
 Rare condition: small coef for last iteration:  0.000D+00
 Rare condition: small coef for last iteration:  0.000D+00
 Rare condition: small coef for last iteration:  0.000D+00
 Restarting incremental Fock formation.
 Rare condition: small coef for last iteration:  0.000D+00
 Rare condition: small coef for last iteration:  0.000D+00
 Rare condition: small coef for last iteration:  0.000D+00
 Rare condition: small coef for last iteration:  0.000D+00
 Rare condition: small coef for last iteration:  0.000D+00
 Rare condition: small coef for last iteration:  0.000D+00
 Rare condition: small coef for last iteration:  0.000D+00
 Rare condition: small coef for last iteration:  0.000D+00
 Rare condition: small coef for last iteration:  0.000D+00
 Rare condition: small coef for last iteration:  0.000D+00
 Rare condition: small coef for last iteration:  0.000D+00
 Rare condition: small coef for last iteration:  0.000D+00
 Rare condition: small coef for last iteration:  0.000D+00
 Rare condition: small coef for last iteration:  0.000D+00
 Restarting incremental Fock formation.
 Rare condition: small coef for last iteration:  0.000D+00
 Rare condition: small coef for last iteration:  0.000D+00
 Rare condition: small coef for last iteration:  0.000D+00
 Rare condition: small coef for last iteration:  0.000D+00
 Rare condition: small coef for last iteration:  0.000D+00
 Rare condition: small coef for last iteration:  0.000D+00
 Rare condition: small coef for last iteration:  0.000D+00
 Rare condition: small coef for last iteration:  0.000D+00
 Rare condition: small coef for last iteration:  0.000D+00
 Rare condition: small coef for last iteration:  0.000D+00
 Rare condition: small coef for last iteration:  0.000D+00
 Rare condition: small coef for last iteration:  0.000D+00
 Rare condition: small coef for last iteration:  0.000D+00
 Restarting incremental Fock formation.
 Rare condition: small coef for last iteration:  0.000D+00
 Rare condition: small coef for last iteration:  0.000D+00
 Rare condition: small coef for last iteration:  0.000D+00
 Rare condition: small coef for last iteration:  0.000D+00
 Rare condition: small coef for last iteration:  0.000D+00
 Rare condition: small coef for last iteration:  0.000D+00
 Rare condition: small coef for last iteration:  0.000D+00
 Rare condition: small coef for last iteration:  0.000D+00
 Rare condition: small coef for last iteration:  0.000D+00
 Rare condition: small coef for last iteration:  0.000D+00
 Rare condition: small coef for last iteration:  0.000D+00
 Rare condition: small coef for last iteration:  0.000D+00
 Rare condition: small coef for last iteration:  0.000D+00
 Restarting incremental Fock formation.
 Rare condition: small coef for last iteration:  0.000D+00
 Rare condition: small coef for last iteration:  0.000D+00
 Rare condition: small coef for last iteration:  0.000D+00
 Rare condition: small coef for last iteration:  0.000D+00
 Rare condition: small coef for last iteration:  0.000D+00
 Rare condition: small coef for last iteration:  0.000D+00
 Rare condition: small coef for last iteration:  0.000D+00
 Rare condition: small coef for last iteration:  0.000D+00
 Rare condition: small coef for last iteration:  0.000D+00
 Rare condition: small coef for last iteration:  0.000D+00
 Rare condition: small coef for last iteration:  0.000D+00
 Rare condition: small coef for last iteration:  0.000D+00
 Rare condition: small coef for last iteration:  0.000D+00
 Rare condition: small coef for last iteration:  0.000D+00
 Restarting incremental Fock formation.
 Rare condition: small coef for last iteration:  0.000D+00
 Rare condition: small coef for last iteration:  0.000D+00
 Rare condition: small coef for last iteration:  0.000D+00
 Rare condition: small coef for last iteration:  0.000D+00
 Rare condition: small coef for last iteration:  0.000D+00
 Rare condition: small coef for last iteration:  0.000D+00
 Rare condition: small coef for last iteration:  0.000D+00
 Rare condition: small coef for last iteration:  0.000D+00
 Rare condition: small coef for last iteration:  0.000D+00
 Rare condition: small coef for last iteration:  0.000D+00
 Rare condition: small coef for last iteration:  0.000D+00
 Rare condition: small coef for last iteration:  0.000D+00
 Rare condition: small coef for last iteration:  0.000D+00
 Restarting incremental Fock formation.
 Rare condition: small coef for last iteration:  0.000D+00
 Rare condition: small coef for last iteration:  0.000D+00
 Rare condition: small coef for last iteration:  0.000D+00
 Rare condition: small coef for last iteration:  0.000D+00
 Rare condition: small coef for last iteration:  0.000D+00
 Rare condition: small coef for last iteration:  0.000D+00
 Rare condition: small coef for last iteration:  0.000D+00
 Rare condition: small coef for last iteration:  0.000D+00
 Rare condition: small coef for last iteration:  0.000D+00
 Rare condition: small coef for last iteration:  0.000D+00
 Rare condition: small coef for last iteration:  0.000D+00
 Rare condition: small coef for last iteration:  0.000D+00
 Rare condition: small coef for last iteration:  0.000D+00
 Restarting incremental Fock formation.
 Rare condition: small coef for last iteration:  0.000D+00
 Rare condition: small coef for last iteration:  0.000D+00
 Rare condition: small coef for last iteration:  0.000D+00
 Rare condition: small coef for last iteration:  0.000D+00
 Rare condition: small coef for last iteration:  0.000D+00
 Rare condition: small coef for last iteration:  0.000D+00
 Rare condition: small coef for last iteration:  0.000D+00
 Rare condition: small coef for last iteration:  0.000D+00
 Rare condition: small coef for last iteration:  0.000D+00
 Rare condition: small coef for last iteration:  0.000D+00
 Rare condition: small coef for last iteration:  0.000D+00
 Rare condition: small coef for last iteration:  0.000D+00
 Rare condition: small coef for last iteration:  0.000D+00
 Rare condition: small coef for last iteration:  0.000D+00
 Restarting incremental Fock formation.
 Rare condition: small coef for last iteration:  0.000D+00
 Rare condition: small coef for last iteration:  0.000D+00
 Rare condition: small coef for last iteration:  0.000D+00
 Rare condition: small coef for last iteration:  0.000D+00
 Rare condition: small coef for last iteration:  0.000D+00
 Rare condition: small coef for last iteration:  0.000D+00
 Rare condition: small coef for last iteration:  0.000D+00
 Rare condition: small coef for last iteration:  0.000D+00
 Rare condition: small coef for last iteration:  0.000D+00
 Rare condition: small coef for last iteration:  0.000D+00
 Rare condition: small coef for last iteration:  0.000D+00
 Rare condition: small coef for last iteration:  0.000D+00
 Rare condition: small coef for last iteration:  0.000D+00
 Restarting incremental Fock formation.
 Rare condition: small coef for last iteration:  0.000D+00
 Rare condition: small coef for last iteration:  0.000D+00
 Rare condition: small coef for last iteration:  0.000D+00
 Rare condition: small coef for last iteration:  0.000D+00
 Rare condition: small coef for last iteration:  0.000D+00
 Rare condition: small coef for last iteration:  0.000D+00
 Rare condition: small coef for last iteration:  0.000D+00
 Rare condition: small coef for last iteration:  0.000D+00
 Rare condition: small coef for last iteration:  0.000D+00
 Rare condition: small coef for last iteration:  0.000D+00
 Rare condition: small coef for last iteration:  0.000D+00
 Rare condition: small coef for last iteration:  0.000D+00
 Rare condition: small coef for last iteration:  0.000D+00
 Restarting incremental Fock formation.
 Rare condition: small coef for last iteration:  0.000D+00
 Rare condition: small coef for last iteration:  0.000D+00
 Rare condition: small coef for last iteration:  0.000D+00
 Rare condition: small coef for last iteration:  0.000D+00
 Rare condition: small coef for last iteration:  0.000D+00
 Rare condition: small coef for last iteration:  0.000D+00
 Rare condition: small coef for last iteration:  0.000D+00
 Rare condition: small coef for last iteration:  0.000D+00
 Rare condition: small coef for last iteration:  0.000D+00
 Rare condition: small coef for last iteration:  0.000D+00
 Rare condition: small coef for last iteration:  0.000D+00
 Rare condition: small coef for last iteration:  0.000D+00
 Rare condition: small coef for last iteration:  0.000D+00
 Rare condition: small coef for last iteration:  0.000D+00
 Restarting incremental Fock formation.
 Rare condition: small coef for last iteration:  0.000D+00
 Rare condition: small coef for last iteration:  0.000D+00
 Rare condition: small coef for last iteration:  0.000D+00
 Rare condition: small coef for last iteration:  0.000D+00
 Rare condition: small coef for last iteration:  0.000D+00
 Rare condition: small coef for last iteration:  0.000D+00
 Rare condition: small coef for last iteration:  0.000D+00
 Rare condition: small coef for last iteration:  0.000D+00
 Rare condition: small coef for last iteration:  0.000D+00
 Rare condition: small coef for last iteration:  0.000D+00
 Rare condition: small coef for last iteration:  0.000D+00
 Rare condition: small coef for last iteration:  0.000D+00
 Rare condition: small coef for last iteration:  0.000D+00
 Restarting incremental Fock formation.
 Rare condition: small coef for last iteration:  0.000D+00
 Rare condition: small coef for last iteration:  0.000D+00
 Rare condition: small coef for last iteration:  0.000D+00
 Rare condition: small coef for last iteration:  0.000D+00
 Rare condition: small coef for last iteration:  0.000D+00
 Rare condition: small coef for last iteration:  0.000D+00
 Rare condition: small coef for last iteration:  0.000D+00
 Rare condition: small coef for last iteration:  0.000D+00
 Rare condition: small coef for last iteration:  0.000D+00
 Rare condition: small coef for last iteration:  0.000D+00
 Rare condition: small coef for last iteration:  0.000D+00
 Rare condition: small coef for last iteration:  0.000D+00
 Rare condition: small coef for last iteration:  0.000D+00
 Restarting incremental Fock formation.
 Rare condition: small coef for last iteration:  0.000D+00
 Rare condition: small coef for last iteration:  0.000D+00
 Rare condition: small coef for last iteration:  0.000D+00
 Rare condition: small coef for last iteration:  0.000D+00
 Rare condition: small coef for last iteration:  0.000D+00
 Rare condition: small coef for last iteration:  0.000D+00
 Rare condition: small coef for last iteration:  0.000D+00
 Rare condition: small coef for last iteration:  0.000D+00
 Rare condition: small coef for last iteration:  0.000D+00
 Rare condition: small coef for last iteration:  0.000D+00
 Rare condition: small coef for last iteration:  0.000D+00
 Rare condition: small coef for last iteration:  0.000D+00
 Rare condition: small coef for last iteration:  0.000D+00
 Rare condition: small coef for last iteration:  0.000D+00
 Restarting incremental Fock formation.
 Rare condition: small coef for last iteration:  0.000D+00
 Rare condition: small coef for last iteration:  0.000D+00
 Rare condition: small coef for last iteration:  0.000D+00
 Rare condition: small coef for last iteration:  0.000D+00
 Rare condition: small coef for last iteration:  0.000D+00
 Rare condition: small coef for last iteration:  0.000D+00
 Rare condition: small coef for last iteration:  0.000D+00
 Rare condition: small coef for last iteration:  0.000D+00
 Rare condition: small coef for last iteration:  0.000D+00
 Rare condition: small coef for last iteration:  0.000D+00
 Rare condition: small coef for last iteration:  0.000D+00
 Rare condition: small coef for last iteration:  0.000D+00
 Rare condition: small coef for last iteration:  0.000D+00
 Restarting incremental Fock formation.
 Rare condition: small coef for last iteration:  0.000D+00
 Rare condition: small coef for last iteration:  0.000D+00
 Rare condition: small coef for last iteration:  0.000D+00
 Rare condition: small coef for last iteration:  0.000D+00
 Rare condition: small coef for last iteration:  0.000D+00
 Rare condition: small coef for last iteration:  0.000D+00
 Rare condition: small coef for last iteration:  0.000D+00
 Rare condition: small coef for last iteration:  0.000D+00
 Rare condition: small coef for last iteration:  0.000D+00
 Rare condition: small coef for last iteration:  0.000D+00
 Rare condition: small coef for last iteration:  0.000D+00
 Rare condition: small coef for last iteration:  0.000D+00
 Rare condition: small coef for last iteration:  0.000D+00
 Restarting incremental Fock formation.
 Rare condition: small coef for last iteration:  0.000D+00
 Rare condition: small coef for last iteration:  0.000D+00
 Rare condition: small coef for last iteration:  0.000D+00
 Rare condition: small coef for last iteration:  0.000D+00
 Rare condition: small coef for last iteration:  0.000D+00
 Rare condition: small coef for last iteration:  0.000D+00
 Rare condition: small coef for last iteration:  0.000D+00
 Rare condition: small coef for last iteration:  0.000D+00
 Rare condition: small coef for last iteration:  0.000D+00
 Rare condition: small coef for last iteration:  0.000D+00
 Rare condition: small coef for last iteration:  0.000D+00
 Rare condition: small coef for last iteration:  0.000D+00
 Rare condition: small coef for last iteration:  0.000D+00
 Rare condition: small coef for last iteration:  0.000D+00
 Restarting incremental Fock formation.
 Rare condition: small coef for last iteration:  0.000D+00
 Rare condition: small coef for last iteration:  0.000D+00
 Rare condition: small coef for last iteration:  0.000D+00
 Rare condition: small coef for last iteration:  0.000D+00
 Rare condition: small coef for last iteration:  0.000D+00
 Rare condition: small coef for last iteration:  0.000D+00
 Rare condition: small coef for last iteration:  0.000D+00
 Rare condition: small coef for last iteration:  0.000D+00
 Rare condition: small coef for last iteration:  0.000D+00
 Rare condition: small coef for last iteration:  0.000D+00
 Rare condition: small coef for last iteration:  0.000D+00
 Rare condition: small coef for last iteration:  0.000D+00
 Rare condition: small coef for last iteration:  0.000D+00
 Restarting incremental Fock formation.
 Rare condition: small coef for last iteration:  0.000D+00
 Rare condition: small coef for last iteration:  0.000D+00
 Rare condition: small coef for last iteration:  0.000D+00
 Rare condition: small coef for last iteration:  0.000D+00
 Rare condition: small coef for last iteration:  0.000D+00
 Rare condition: small coef for last iteration:  0.000D+00
 Rare condition: small coef for last iteration:  0.000D+00
 Rare condition: small coef for last iteration:  0.000D+00
 Rare condition: small coef for last iteration:  0.000D+00
 Rare condition: small coef for last iteration:  0.000D+00
 Rare condition: small coef for last iteration:  0.000D+00
 Rare condition: small coef for last iteration:  0.000D+00
 Rare condition: small coef for last iteration:  0.000D+00
 Restarting incremental Fock formation.
 Rare condition: small coef for last iteration:  0.000D+00
 Rare condition: small coef for last iteration:  0.000D+00
 Rare condition: small coef for last iteration:  0.000D+00
 Rare condition: small coef for last iteration:  0.000D+00
 Rare condition: small coef for last iteration:  0.000D+00
 Rare condition: small coef for last iteration:  0.000D+00
 Rare condition: small coef for last iteration:  0.000D+00
 Rare condition: small coef for last iteration:  0.000D+00
 Rare condition: small coef for last iteration:  0.000D+00
 Rare condition: small coef for last iteration:  0.000D+00
 Rare condition: small coef for last iteration:  0.000D+00
 Rare condition: small coef for last iteration:  0.000D+00
 Rare condition: small coef for last iteration:  0.000D+00
 Rare condition: small coef for last iteration:  0.000D+00
 Restarting incremental Fock formation.
 Rare condition: small coef for last iteration:  0.000D+00
 Rare condition: small coef for last iteration:  0.000D+00
 Rare condition: small coef for last iteration:  0.000D+00
 Rare condition: small coef for last iteration:  0.000D+00
 Rare condition: small coef for last iteration:  0.000D+00
 Rare condition: small coef for last iteration:  0.000D+00
 Rare condition: small coef for last iteration:  0.000D+00
 Rare condition: small coef for last iteration:  0.000D+00
 Rare condition: small coef for last iteration:  0.000D+00
 Rare condition: small coef for last iteration:  0.000D+00
 Rare condition: small coef for last iteration:  0.000D+00
 Rare condition: small coef for last iteration:  0.000D+00
 Rare condition: small coef for last iteration:  0.000D+00
 Restarting incremental Fock formation.
 Rare condition: small coef for last iteration:  0.000D+00
 Rare condition: small coef for last iteration:  0.000D+00
 Rare condition: small coef for last iteration:  0.000D+00
 Rare condition: small coef for last iteration:  0.000D+00
 Rare condition: small coef for last iteration:  0.000D+00
 Rare condition: small coef for last iteration:  0.000D+00
 Rare condition: small coef for last iteration:  0.000D+00
 Rare condition: small coef for last iteration:  0.000D+00
 Rare condition: small coef for last iteration:  0.000D+00
 Rare condition: small coef for last iteration:  0.000D+00
 Rare condition: small coef for last iteration:  0.000D+00
 Rare condition: small coef for last iteration:  0.000D+00
 Rare condition: small coef for last iteration:  0.000D+00
 >>>>>>>>>> Convergence criterion not met.
 Error on total polarization charges = 61.56225
 SCF Done:  E(UMN15) =  -5588.78102639     A.U. after  501 cycles
            NFock=500  Conv=0.10D-04     -V/T= 2.1597
 <Sx>= 0.0000 <Sy>= 0.0000 <Sz>= 0.5000 <S**2>= 0.7900 S= 0.5198
 <L.S>=  0.00000000000    
 SMD-CDS (non-electrostatic) energy       (kcal/mol) =       4.57
 (included in total energy above)
 Annihilation of the first spin contaminant:
 S**2 before annihilation     0.7900,   after     0.7512
 Convergence failure -- run terminated.
 Error termination via Lnk1e in /sysapps/ubuntu-applications/gaussian-new/avx/g16/l502.exe at Thu Mar 13 14:26:18 2025.
 Job cpu time:      21 days 17 hours 36 minutes 30.1 seconds.
 Elapsed time:       0 days 21 hours 50 minutes  8.2 seconds.
 File lengths (MBytes):  RWF=  13868 Int=      0 D2E=      0 Chk=    108 Scr=      8
