 Entering Gaussian System, Link 0=/sysapps/ubuntu-applications/gaussian-new/avx/g16//g16
 Input=preplx.in
 Output=preplx.log
 Initial command:
 /sysapps/ubuntu-applications/gaussian-new/avx/g16/l1.exe "/scratch/users/sgozem/393288/Gau-879011.inp" -scrdir="/scratch/users/sgozem/393288/"
 Entering Link 1 = /sysapps/ubuntu-applications/gaussian-new/avx/g16/l1.exe PID=    879013.
  
 Copyright (c) 1988,1990,1992,1993,1995,1998,2003,2009,2016,
            Gaussian, Inc.  All Rights Reserved.
  
 This is part of the Gaussian(R) 16 program.  It is based on
 the Gaussian(R) 09 system (copyright 2009, Gaussian, Inc.),
 the Gaussian(R) 03 system (copyright 2003, Gaussian, Inc.),
 the Gaussian(R) 98 system (copyright 1998, Gaussian, Inc.),
 the Gaussian(R) 94 system (copyright 1995, Gaussian, Inc.),
 the Gaussian 92(TM) system (copyright 1992, Gaussian, Inc.),
 the Gaussian 90(TM) system (copyright 1990, Gaussian, Inc.),
 the Gaussian 88(TM) system (copyright 1988, Gaussian, Inc.),
 the Gaussian 86(TM) system (copyright 1986, Carnegie Mellon
 University), and the Gaussian 82(TM) system (copyright 1983,
 Carnegie Mellon University). Gaussian is a federally registered
 trademark of Gaussian, Inc.
  
 This software contains proprietary and confidential information,
 including trade secrets, belonging to Gaussian, Inc.
  
 This software is provided under written license and may be
 used, copied, transmitted, or stored only in accord with that
 written license.
  
 The following legend is applicable only to US Government
 contracts under FAR:
  
                    RESTRICTED RIGHTS LEGEND
  
 Use, reproduction and disclosure by the US Government is
 subject to restrictions as set forth in subparagraphs (a)
 and (c) of the Commercial Computer Software - Restricted
 Rights clause in FAR 52.227-19.
  
 Gaussian, Inc.
 340 Quinnipiac St., Bldg. 40, Wallingford CT 06492
  
  
 ---------------------------------------------------------------
 Warning -- This program may not be used in any manner that
 competes with the business of Gaussian, Inc. or will provide
 assistance to any competitor of Gaussian, Inc.  The licensee
 of this program is prohibited from giving any competitor of
 Gaussian, Inc. access to this program.  By using this program,
 the user acknowledges that Gaussian, Inc. is engaged in the
 business of creating and licensing software in the field of
 computational chemistry and represents and warrants to the
 licensee that it is not a competitor of Gaussian, Inc. and that
 it will not use this program in any manner prohibited above.
 ---------------------------------------------------------------
  

 Cite this work as:
 Gaussian 16, Revision A.03,
 M. J. Frisch, G. W. Trucks, H. B. Schlegel, G. E. Scuseria, 
 M. A. Robb, J. R. Cheeseman, G. Scalmani, V. Barone, 
 G. A. Petersson, H. Nakatsuji, X. Li, M. Caricato, A. V. Marenich, 
 J. Bloino, B. G. Janesko, R. Gomperts, B. Mennucci, H. P. Hratchian, 
 J. V. Ortiz, A. F. Izmaylov, J. L. Sonnenberg, D. Williams-Young, 
 F. Ding, F. Lipparini, F. Egidi, J. Goings, B. Peng, A. Petrone, 
 T. Henderson, D. Ranasinghe, V. G. Zakrzewski, J. Gao, N. Rega, 
 G. Zheng, W. Liang, M. Hada, M. Ehara, K. Toyota, R. Fukuda, 
 J. Hasegawa, M. Ishida, T. Nakajima, Y. Honda, O. Kitao, H. Nakai, 
 T. Vreven, K. Throssell, J. A. Montgomery, Jr., J. E. Peralta, 
 F. Ogliaro, M. J. Bearpark, J. J. Heyd, E. N. Brothers, K. N. Kudin, 
 V. N. Staroverov, T. A. Keith, R. Kobayashi, J. Normand, 
 K. Raghavachari, A. P. Rendell, J. C. Burant, S. S. Iyengar, 
 J. Tomasi, M. Cossi, J. M. Millam, M. Klene, C. Adamo, R. Cammi, 
 J. W. Ochterski, R. L. Martin, K. Morokuma, O. Farkas, 
 J. B. Foresman, and D. J. Fox, Gaussian, Inc., Wallingford CT, 2016.
 
 ******************************************
 Gaussian 16:  ES64L-G16RevA.03 25-Dec-2016
                 2-Jun-2025 
 ******************************************
 %chk=preplx.chk
 %mem=92Gb
 %nprocshared=24
 Will use up to   24 processors via shared memory.
 -------------------------------------------------------------------
 #P MN15/gen scf=(maxcyc=500) freq scrf=(smd,solvent=DiChloroEthane)
 -------------------------------------------------------------------
 1/10=4,30=1,38=1/1,3;
 2/12=2,17=6,18=5,40=1/2;
 3/5=7,11=2,25=1,30=1,70=32201,71=2,72=10,74=-73,140=1/1,2,3;
 4//1;
 5/5=2,7=500,38=5,53=10,98=1/2;
 8/6=4,10=90,11=11/1;
 11/6=1,8=1,9=11,15=111,16=1/1,2,10;
 10/6=1/2;
 6/7=2,8=2,9=2,10=2,28=1/1;
 7/8=1,10=1,25=1/1,2,3,16;
 1/10=4,30=1/3;
 99//99;
 Leave Link    1 at Mon Jun  2 07:33:28 2025, MaxMem= 12348030976 cpu:               2.2 elap:               0.1
 (Enter /sysapps/ubuntu-applications/gaussian-new/avx/g16/l101.exe)
 ----
 Freq
 ----
 Symbolic Z-matrix:
 Charge =  0 Multiplicity = 1
 C                    -3.1737    0.37595  -0.66323 
 C                    -3.13746  -1.02507  -0.84534 
 C                    -3.51477  -1.58686  -2.05926 
 C                    -3.92407  -0.75538  -3.10809 
 C                    -3.96378   0.63468  -2.94337 
 C                    -3.59887   1.20301  -1.72756 
 C                    -0.9041    1.93258   0.78179 
 C                    -0.25468   2.02774  -0.47474 
 C                    -0.22827   1.30765   1.86917 
 H                    -2.78559  -1.65599  -0.02479 
 H                    -3.47418  -2.66837  -2.20106 
 H                    -4.21175  -1.19406  -4.06638 
 H                    -4.29042   1.27309  -3.76646 
 H                    -3.65511   2.28418  -1.58846 
 O                     0.93936   0.84575   1.8499 
 O                     0.90951   1.6144   -0.7349 
 O                    -0.95492   2.59757  -1.43829 
 O                    -0.93861   1.21888   2.98217 
 C                    -0.41349   2.58245  -2.75924 
 C                    -0.36557   0.54597   4.10027 
 H                    -1.16462   3.05395  -3.40268 
 H                    -0.23174   1.54737  -3.07948 
 H                     0.52564   3.14978  -2.79569 
 H                    -1.15372   0.49798   4.8596 
 H                     0.49951   1.10392   4.48415 
 H                    -0.0451   -0.46643   3.81796 
 O                     2.168    -1.65736   1.47436 
 O                     1.88083  -1.01777  -1.50209 
 O                     3.30279   1.95075   1.0543 
 S                     4.02821   2.26838  -0.21774 
 S                     3.64997  -1.85941   1.48153 
 S                     0.41009  -1.3183   -1.44683 
 O                     3.57955   1.23198  -1.18816 
 O                     5.43657   2.55995  -0.13338 
 O                     4.17575  -0.74587   0.64001 
 O                     4.28359  -2.11792   2.74966 
 O                    -0.05326  -0.88242  -0.11088 
 O                    -0.35943  -0.93645  -2.60969 
 C                     0.33441  -3.1561   -1.39458 
 C                     3.92806  -3.38544   0.48867 
 C                     3.22698   3.84711  -0.81079 
 F                    -0.92984  -3.53141  -1.52281 
 F                     0.80099  -3.60118  -0.24363 
 F                     1.04585  -3.65698  -2.38638 
 F                     3.53797  -3.20867  -0.75823 
 F                     3.24505  -4.37669   1.0329 
 F                     5.21657  -3.67321   0.51038 
 F                     2.12737   4.10199  -0.1263 
 F                     2.92981   3.73006  -2.09283 
 F                     4.07707   4.844    -0.64855 
 C                    -2.84736   0.90446   0.639 
 H                    -2.59124   0.15593   1.39839 
 C                    -4.98381   0.93663   1.60467 
 C                    -5.38938   2.1977    1.087 
 C                    -4.51302   0.83915   2.94095 
 C                    -5.96467  -2.54095   0.87761 
 C                    -6.67882  -1.01191  -0.80108 
 C                    -6.61187  -2.33136  -0.32985 
 H                    -5.85964  -3.53171   1.32053 
 H                    -7.16535  -0.76175  -1.74655 
 H                    -7.0546   -3.14787  -0.90033 
 N                    -5.64128   3.2515    0.66363 
 N                    -4.05133   0.74903   4.00576 
 N                    -5.5679   -0.21253   1.01065 
 N                    -6.17061   0.01667  -0.14545 
 Sc                    2.1285    0.23652   0.25772 
 C                    -2.36692   2.27736   0.92908 
 H                    -2.69874   3.03138   0.20787 
 H                    -2.60351   2.59719   1.95154 
 C                    -5.42891  -1.44384   1.54306 
 H                    -4.90385  -1.51518   2.49653 
 
 ITRead=  0  0  0  0  0  0  0  0  0  0  0  0  0  0  0  0  0  0  0  0
 ITRead=  0  0  0  0  0  0  0  0  0  0  0  0  0  0  0  0  0  0  0  0
 ITRead=  0  0  0  0  0  0  0  0  0  0  0  0  0  0  0  0  0  0  0  0
 ITRead=  0  0  0  0  0  0  0  0  0  0  0
 MicOpt= -1 -1 -1 -1 -1 -1 -1 -1 -1 -1 -1 -1 -1 -1 -1 -1 -1 -1 -1 -1
 MicOpt= -1 -1 -1 -1 -1 -1 -1 -1 -1 -1 -1 -1 -1 -1 -1 -1 -1 -1 -1 -1
 MicOpt= -1 -1 -1 -1 -1 -1 -1 -1 -1 -1 -1 -1 -1 -1 -1 -1 -1 -1 -1 -1
 MicOpt= -1 -1 -1 -1 -1 -1 -1 -1 -1 -1 -1
 NAtoms=     71 NQM=       71 NQMF=       0 NMMI=      0 NMMIF=      0
                NMic=       0 NMicF=      0.
                    Isotopes and Nuclear Properties:
 (Nuclear quadrupole moments (NQMom) in fm**2, nuclear magnetic moments (NMagM)
  in nuclear magnetons)

  Atom         1           2           3           4           5           6           7           8           9          10
 IAtWgt=          12          12          12          12          12          12          12          12          12           1
 AtmWgt=  12.0000000  12.0000000  12.0000000  12.0000000  12.0000000  12.0000000  12.0000000  12.0000000  12.0000000   1.0078250
 NucSpn=           0           0           0           0           0           0           0           0           0           1
 AtZEff=  -0.0000000  -0.0000000  -0.0000000  -0.0000000  -0.0000000  -0.0000000  -0.0000000  -0.0000000  -0.0000000  -0.0000000
 NQMom=    0.0000000   0.0000000   0.0000000   0.0000000   0.0000000   0.0000000   0.0000000   0.0000000   0.0000000   0.0000000
 NMagM=    0.0000000   0.0000000   0.0000000   0.0000000   0.0000000   0.0000000   0.0000000   0.0000000   0.0000000   2.7928460
 AtZNuc=   6.0000000   6.0000000   6.0000000   6.0000000   6.0000000   6.0000000   6.0000000   6.0000000   6.0000000   1.0000000

  Atom        11          12          13          14          15          16          17          18          19          20
 IAtWgt=           1           1           1           1          16          16          16          16          12          12
 AtmWgt=   1.0078250   1.0078250   1.0078250   1.0078250  15.9949146  15.9949146  15.9949146  15.9949146  12.0000000  12.0000000
 NucSpn=           1           1           1           1           0           0           0           0           0           0
 AtZEff=  -0.0000000  -0.0000000  -0.0000000  -0.0000000  -0.0000000  -0.0000000  -0.0000000  -0.0000000  -0.0000000  -0.0000000
 NQMom=    0.0000000   0.0000000   0.0000000   0.0000000   0.0000000   0.0000000   0.0000000   0.0000000   0.0000000   0.0000000
 NMagM=    2.7928460   2.7928460   2.7928460   2.7928460   0.0000000   0.0000000   0.0000000   0.0000000   0.0000000   0.0000000
 AtZNuc=   1.0000000   1.0000000   1.0000000   1.0000000   8.0000000   8.0000000   8.0000000   8.0000000   6.0000000   6.0000000

  Atom        21          22          23          24          25          26          27          28          29          30
 IAtWgt=           1           1           1           1           1           1          16          16          16          32
 AtmWgt=   1.0078250   1.0078250   1.0078250   1.0078250   1.0078250   1.0078250  15.9949146  15.9949146  15.9949146  31.9720718
 NucSpn=           1           1           1           1           1           1           0           0           0           0
 AtZEff=  -0.0000000  -0.0000000  -0.0000000  -0.0000000  -0.0000000  -0.0000000  -0.0000000  -0.0000000  -0.0000000  -0.0000000
 NQMom=    0.0000000   0.0000000   0.0000000   0.0000000   0.0000000   0.0000000   0.0000000   0.0000000   0.0000000   0.0000000
 NMagM=    2.7928460   2.7928460   2.7928460   2.7928460   2.7928460   2.7928460   0.0000000   0.0000000   0.0000000   0.0000000
 AtZNuc=   1.0000000   1.0000000   1.0000000   1.0000000   1.0000000   1.0000000   8.0000000   8.0000000   8.0000000  16.0000000

  Atom        31          32          33          34          35          36          37          38          39          40
 IAtWgt=          32          32          16          16          16          16          16          16          12          12
 AtmWgt=  31.9720718  31.9720718  15.9949146  15.9949146  15.9949146  15.9949146  15.9949146  15.9949146  12.0000000  12.0000000
 NucSpn=           0           0           0           0           0           0           0           0           0           0
 AtZEff=  -0.0000000  -0.0000000  -0.0000000  -0.0000000  -0.0000000  -0.0000000  -0.0000000  -0.0000000  -0.0000000  -0.0000000
 NQMom=    0.0000000   0.0000000   0.0000000   0.0000000   0.0000000   0.0000000   0.0000000   0.0000000   0.0000000   0.0000000
 NMagM=    0.0000000   0.0000000   0.0000000   0.0000000   0.0000000   0.0000000   0.0000000   0.0000000   0.0000000   0.0000000
 AtZNuc=  16.0000000  16.0000000   8.0000000   8.0000000   8.0000000   8.0000000   8.0000000   8.0000000   6.0000000   6.0000000

  Atom        41          42          43          44          45          46          47          48          49          50
 IAtWgt=          12          19          19          19          19          19          19          19          19          19
 AtmWgt=  12.0000000  18.9984032  18.9984032  18.9984032  18.9984032  18.9984032  18.9984032  18.9984032  18.9984032  18.9984032
 NucSpn=           0           1           1           1           1           1           1           1           1           1
 AtZEff=  -0.0000000  -0.0000000  -0.0000000  -0.0000000  -0.0000000  -0.0000000  -0.0000000  -0.0000000  -0.0000000  -0.0000000
 NQMom=    0.0000000   0.0000000   0.0000000   0.0000000   0.0000000   0.0000000   0.0000000   0.0000000   0.0000000   0.0000000
 NMagM=    0.0000000   2.6288670   2.6288670   2.6288670   2.6288670   2.6288670   2.6288670   2.6288670   2.6288670   2.6288670
 AtZNuc=   6.0000000   9.0000000   9.0000000   9.0000000   9.0000000   9.0000000   9.0000000   9.0000000   9.0000000   9.0000000

  Atom        51          52          53          54          55          56          57          58          59          60
 IAtWgt=          12           1          12          12          12          12          12          12           1           1
 AtmWgt=  12.0000000   1.0078250  12.0000000  12.0000000  12.0000000  12.0000000  12.0000000  12.0000000   1.0078250   1.0078250
 NucSpn=           0           1           0           0           0           0           0           0           1           1
 AtZEff=  -0.0000000  -0.0000000  -0.0000000  -0.0000000  -0.0000000  -0.0000000  -0.0000000  -0.0000000  -0.0000000  -0.0000000
 NQMom=    0.0000000   0.0000000   0.0000000   0.0000000   0.0000000   0.0000000   0.0000000   0.0000000   0.0000000   0.0000000
 NMagM=    0.0000000   2.7928460   0.0000000   0.0000000   0.0000000   0.0000000   0.0000000   0.0000000   2.7928460   2.7928460
 AtZNuc=   6.0000000   1.0000000   6.0000000   6.0000000   6.0000000   6.0000000   6.0000000   6.0000000   1.0000000   1.0000000

  Atom        61          62          63          64          65          66          67          68          69          70
 IAtWgt=           1          14          14          14          14          45          12           1           1          12
 AtmWgt=   1.0078250  14.0030740  14.0030740  14.0030740  14.0030740  44.9559136  12.0000000   1.0078250   1.0078250  12.0000000
 NucSpn=           1           2           2           2           2           7           0           1           1           0
 AtZEff=  -0.0000000  -0.0000000  -0.0000000  -0.0000000  -0.0000000  -0.0000000  -0.0000000  -0.0000000  -0.0000000  -0.0000000
 NQMom=    0.0000000   2.0440000   2.0440000   2.0440000   2.0440000 -22.0000000   0.0000000   0.0000000   0.0000000   0.0000000
 NMagM=    2.7928460   0.4037610   0.4037610   0.4037610   0.4037610   4.7564830   0.0000000   2.7928460   2.7928460   0.0000000
 AtZNuc=   1.0000000   7.0000000   7.0000000   7.0000000   7.0000000  21.0000000   6.0000000   1.0000000   1.0000000   6.0000000

  Atom        71
 IAtWgt=           1
 AtmWgt=   1.0078250
 NucSpn=           1
 AtZEff=  -0.0000000
 NQMom=    0.0000000
 NMagM=    2.7928460
 AtZNuc=   1.0000000
 Leave Link  101 at Mon Jun  2 07:33:28 2025, MaxMem= 12348030976 cpu:               2.5 elap:               0.1
 (Enter /sysapps/ubuntu-applications/gaussian-new/avx/g16/l103.exe)

 GradGradGradGradGradGradGradGradGradGradGradGradGradGradGradGradGradGrad
 Berny optimization.
 Initialization pass.
 Trust Radius=3.00D-01 FncErr=1.00D-07 GrdErr=1.00D-07 EigMax=2.50D+02 EigMin=1.00D-04
 Number of steps in this run=      2 maximum allowed number of steps=      2.
 GradGradGradGradGradGradGradGradGradGradGradGradGradGradGradGradGradGrad

 Leave Link  103 at Mon Jun  2 07:33:28 2025, MaxMem= 12348030976 cpu:               0.8 elap:               0.1
 (Enter /sysapps/ubuntu-applications/gaussian-new/avx/g16/l202.exe)
 Stoichiometry    C23H18F9N4O13S3Sc
 Framework group  C1[X(C23H18F9N4O13S3Sc)]
 Deg. of freedom   207
 Full point group                 C1      NOp   1
 Largest Abelian subgroup         C1      NOp   1
 Largest concise Abelian subgroup C1      NOp   1
                         Standard orientation:                         
 ---------------------------------------------------------------------
 Center     Atomic      Atomic             Coordinates (Angstroms)
 Number     Number       Type             X           Y           Z
 ---------------------------------------------------------------------
      1          6           0        3.173696   -0.375952   -0.663229
      2          6           0        3.137464    1.025073   -0.845342
      3          6           0        3.514774    1.586859   -2.059258
      4          6           0        3.924065    0.755375   -3.108090
      5          6           0        3.963784   -0.634676   -2.943370
      6          6           0        3.598872   -1.203008   -1.727563
      7          6           0        0.904099   -1.932577    0.781785
      8          6           0        0.254684   -2.027742   -0.474736
      9          6           0        0.228271   -1.307652    1.869169
     10          1           0        2.785593    1.655986   -0.024793
     11          1           0        3.474177    2.668374   -2.201058
     12          1           0        4.211754    1.194059   -4.066384
     13          1           0        4.290425   -1.273091   -3.766458
     14          1           0        3.655109   -2.284184   -1.588462
     15          8           0       -0.939358   -0.845751    1.849902
     16          8           0       -0.909514   -1.614396   -0.734904
     17          8           0        0.954915   -2.597568   -1.438290
     18          8           0        0.938612   -1.218883    2.982167
     19          6           0        0.413486   -2.582451   -2.759244
     20          6           0        0.365569   -0.545969    4.100271
     21          1           0        1.164622   -3.053953   -3.402679
     22          1           0        0.231740   -1.547368   -3.079479
     23          1           0       -0.525644   -3.149777   -2.795690
     24          1           0        1.153720   -0.497975    4.859596
     25          1           0       -0.499507   -1.103920    4.484147
     26          1           0        0.045096    0.466427    3.817962
     27          8           0       -2.168004    1.657361    1.474356
     28          8           0       -1.880827    1.017774   -1.502092
     29          8           0       -3.302785   -1.950749    1.054300
     30         16           0       -4.028214   -2.268375   -0.217737
     31         16           0       -3.649969    1.859407    1.481530
     32         16           0       -0.410089    1.318299   -1.446832
     33          8           0       -3.579553   -1.231976   -1.188160
     34          8           0       -5.436570   -2.559945   -0.133382
     35          8           0       -4.175750    0.745872    0.640005
     36          8           0       -4.283591    2.117917    2.749655
     37          8           0        0.053257    0.882420   -0.110880
     38          8           0        0.359432    0.936448   -2.609694
     39          6           0       -0.334412    3.156096   -1.394575
     40          6           0       -3.928059    3.385444    0.488667
     41          6           0       -3.226980   -3.847107   -0.810794
     42          9           0        0.929836    3.531405   -1.522808
     43          9           0       -0.800985    3.601178   -0.243633
     44          9           0       -1.045848    3.656977   -2.386377
     45          9           0       -3.537973    3.208667   -0.758229
     46          9           0       -3.245052    4.376685    1.032899
     47          9           0       -5.216571    3.673212    0.510384
     48          9           0       -2.127366   -4.101993   -0.126301
     49          9           0       -2.929808   -3.730063   -2.092832
     50          9           0       -4.077071   -4.843996   -0.648547
     51          6           0        2.847359   -0.904455    0.638997
     52          1           0        2.591240   -0.155925    1.398387
     53          6           0        4.983805   -0.936629    1.604669
     54          6           0        5.389383   -2.197703    1.086998
     55          6           0        4.513022   -0.839153    2.940949
     56          6           0        5.964671    2.540954    0.877614
     57          6           0        6.678824    1.011906   -0.801079
     58          6           0        6.611868    2.331358   -0.329847
     59          1           0        5.859642    3.531707    1.320532
     60          1           0        7.165348    0.761752   -1.746552
     61          1           0        7.054604    3.147873   -0.900326
     62          7           0        5.641278   -3.251504    0.663634
     63          7           0        4.051325   -0.749031    4.005758
     64          7           0        5.567898    0.212529    1.010653
     65          7           0        6.170613   -0.016669   -0.145447
     66         21           0       -2.128498   -0.236515    0.257718
     67          6           0        2.366923   -2.277363    0.929082
     68          1           0        2.698744   -3.031378    0.207868
     69          1           0        2.603514   -2.597188    1.951540
     70          6           0        5.428906    1.443837    1.543061
     71          1           0        4.903854    1.515180    2.496529
 ---------------------------------------------------------------------
 Rotational constants (GHZ):           0.0717602           0.0398698           0.0334689
 Leave Link  202 at Mon Jun  2 07:33:28 2025, MaxMem= 12348030976 cpu:               1.9 elap:               0.1
 (Enter /sysapps/ubuntu-applications/gaussian-new/avx/g16/l301.exe)
 General basis read from cards:  (5D, 7F)
 Centers:      10     11     12     13     14     21     22     23     24     25
 Centers:      26     52     59     60     61     68     69     71
 S 3 1.00
     Exponent=  1.3010701000D+01 Coefficients=  1.9682158000D-02
     Exponent=  1.9622572000D+00 Coefficients=  1.3796524000D-01
     Exponent=  4.4453796000D-01 Coefficients=  4.7831935000D-01
 S 1 1.00
     Exponent=  1.2194962000D-01 Coefficients=  1.0000000000D+00
 P 1 1.00
     Exponent=  8.0000000000D-01 Coefficients=  1.0000000000D+00
 ****
 Centers:       1      2      3      4      5      6      7      8      9     19
 Centers:      20     39     40     41     51     53     54     55     56     57
 Centers:      58     67     70
 S 5 1.00
     Exponent=  1.2384016938D+03 Coefficients=  5.4568832082D-03
     Exponent=  1.8629004992D+02 Coefficients=  4.0638409211D-02
     Exponent=  4.2251176346D+01 Coefficients=  1.8025593888D-01
     Exponent=  1.1676557932D+01 Coefficients=  4.6315121755D-01
     Exponent=  3.5930506482D+00 Coefficients=  4.4087173314D-01
 S 1 1.00
     Exponent=  4.0245147363D-01 Coefficients=  1.0000000000D+00
 S 1 1.00
     Exponent=  1.3090182668D-01 Coefficients=  1.0000000000D+00
 P 3 1.00
     Exponent=  9.4680970621D+00 Coefficients=  3.8387871728D-02
     Exponent=  2.0103545142D+00 Coefficients=  2.1117025112D-01
     Exponent=  5.4771004707D-01 Coefficients=  5.1328172114D-01
 P 1 1.00
     Exponent=  1.5268613795D-01 Coefficients=  1.0000000000D+00
 D 1 1.00
     Exponent=  8.0000000000D-01 Coefficients=  1.0000000000D+00
 ****
 Centers:      62     63     64     65
 S 5 1.00
     Exponent=  1.7128415853D+03 Coefficients= -5.3934125305D-03
     Exponent=  2.5764812677D+02 Coefficients= -4.0221581118D-02
     Exponent=  5.8458245853D+01 Coefficients= -1.7931144990D-01
     Exponent=  1.6198367905D+01 Coefficients= -4.6376317823D-01
     Exponent=  5.0052600809D+00 Coefficients= -4.4171422662D-01
 S 1 1.00
     Exponent=  5.8731856571D-01 Coefficients=  1.0000000000D+00
 S 1 1.00
     Exponent=  1.8764592253D-01 Coefficients=  1.0000000000D+00
 P 3 1.00
     Exponent=  1.3571470233D+01 Coefficients= -4.0072398852D-02
     Exponent=  2.9257372874D+00 Coefficients= -2.1807045028D-01
     Exponent=  7.9927750754D-01 Coefficients= -5.1294466049D-01
 P 1 1.00
     Exponent=  2.1954348034D-01 Coefficients=  1.0000000000D+00
 D 1 1.00
     Exponent=  1.0000000000D+00 Coefficients=  1.0000000000D+00
 ****
 Centers:      15     16     17     18     27     28     29     33     34     35
 Centers:      36     37     38
 S 5 1.00
     Exponent=  2.2661767785D+03 Coefficients= -5.3431809926D-03
     Exponent=  3.4087010191D+02 Coefficients= -3.9890039230D-02
     Exponent=  7.7363135167D+01 Coefficients= -1.7853911985D-01
     Exponent=  2.1479644940D+01 Coefficients= -4.6427684959D-01
     Exponent=  6.6589433124D+00 Coefficients= -4.4309745172D-01
 S 1 1.00
     Exponent=  8.0975975668D-01 Coefficients=  1.0000000000D+00
 S 1 1.00
     Exponent=  2.5530772234D-01 Coefficients=  1.0000000000D+00
 P 3 1.00
     Exponent=  1.7721504317D+01 Coefficients=  4.3394573193D-02
     Exponent=  3.8635505440D+00 Coefficients=  2.3094120765D-01
     Exponent=  1.0480920883D+00 Coefficients=  5.1375311064D-01
 P 1 1.00
     Exponent=  2.7641544411D-01 Coefficients=  1.0000000000D+00
 D 1 1.00
     Exponent=  1.2000000000D+00 Coefficients=  1.0000000000D+00
 ****
 Centers:      42     43     44     45     46     47     48     49     50
 S 5 1.00
     Exponent=  2.8948325990D+03 Coefficients= -5.3408255515D-03
     Exponent=  4.3541939120D+02 Coefficients= -3.9904258866D-02
     Exponent=  9.8843328866D+01 Coefficients= -1.7912768038D-01
     Exponent=  2.7485198001D+01 Coefficients= -4.6758090825D-01
     Exponent=  8.5405498171D+00 Coefficients= -4.4653131020D-01
 S 1 1.00
     Exponent=  1.0654578038D+00 Coefficients=  1.0000000000D+00
 S 1 1.00
     Exponent=  3.3247346748D-01 Coefficients=  1.0000000000D+00
 P 3 1.00
     Exponent=  2.2696633924D+01 Coefficients= -4.5212874436D-02
     Exponent=  4.9872339257D+00 Coefficients= -2.3754317067D-01
     Exponent=  1.3491613954D+00 Coefficients= -5.1287353587D-01
 P 1 1.00
     Exponent=  3.4829881977D-01 Coefficients=  1.0000000000D+00
 D 1 1.00
     Exponent=  1.4000000000D+00 Coefficients=  1.0000000000D+00
 ****
 Centers:      30     31     32
 S 5 1.00
     Exponent=  9.1849303010D+03 Coefficients= -2.2294387756D-03
     Exponent=  1.3815105503D+03 Coefficients= -1.6683029937D-02
     Exponent=  3.1387147580D+02 Coefficients= -7.5262436116D-02
     Exponent=  8.8053870623D+01 Coefficients= -1.9376827038D-01
     Exponent=  2.7039914905D+01 Coefficients= -1.7718020803D-01
 S 3 1.00
     Exponent=  4.5648731303D+01 Coefficients= -1.0736062573D-01
     Exponent=  4.9664522326D+00 Coefficients=  6.5066293018D-01
     Exponent=  2.0116242047D+00 Coefficients=  5.9712155354D-01
 S 1 1.00
     Exponent=  3.5661077013D-01 Coefficients=  1.0000000000D+00
 S 1 1.00
     Exponent=  1.3507221477D-01 Coefficients=  1.0000000000D+00
 P 5 1.00
     Exponent=  2.6198233439D+02 Coefficients= -9.2729929822D-03
     Exponent=  6.1306894736D+01 Coefficients= -6.6547669241D-02
     Exponent=  1.9103729887D+01 Coefficients= -2.4828595903D-01
     Exponent=  6.6567720378D+00 Coefficients= -4.8703847402D-01
     Exponent=  2.3959635161D+00 Coefficients= -3.9337850312D-01
 P 1 1.00
     Exponent=  6.1776161679D-01 Coefficients=  1.0000000000D+00
 P 1 1.00
     Exponent=  1.6993376871D-01 Coefficients=  1.0000000000D+00
 D 1 1.00
     Exponent=  5.5000000000D-01 Coefficients=  1.0000000000D+00
 ****
 Centers:      66
 S 8 1.00
     Exponent=  1.9161291874D+05 Coefficients=  2.3076475942D-04
     Exponent=  2.8723850363D+04 Coefficients=  1.7890329946D-03
     Exponent=  6.5370116490D+03 Coefficients=  9.2990401140D-03
     Exponent=  1.8503097171D+03 Coefficients=  3.7739438011D-02
     Exponent=  6.0238855156D+02 Coefficients=  1.2227148359D-01
     Exponent=  2.1617324766D+02 Coefficients=  2.8814821470D-01
     Exponent=  8.3712517880D+01 Coefficients=  4.0517543099D-01
     Exponent=  3.2908707189D+01 Coefficients=  2.0566019623D-01
 S 4 1.00
     Exponent=  2.1134393234D+02 Coefficients= -2.4527991462D-02
     Exponent=  6.5128920139D+01 Coefficients= -1.1570158142D-01
     Exponent=  1.0034311535D+01 Coefficients=  5.5995283317D-01
     Exponent=  4.1596884597D+00 Coefficients=  5.6087765073D-01
 S 2 1.00
     Exponent=  6.0009041613D+00 Coefficients= -2.2840494325D-01
     Exponent=  9.8255784150D-01 Coefficients=  7.1948970378D-01
 S 1 1.00
     Exponent=  4.2483192773D-01 Coefficients=  1.0000000000D+00
 S 1 1.00
     Exponent=  7.7185462096D-02 Coefficients=  1.0000000000D+00
 S 1 1.00
     Exponent=  3.0147219702D-02 Coefficients=  1.0000000000D+00
 P 6 1.00
     Exponent=  9.4734122823D+02 Coefficients=  2.4737208744D-03
     Exponent=  2.2409699732D+02 Coefficients=  1.9742967060D-02
     Exponent=  7.1560334882D+01 Coefficients=  9.0357147549D-02
     Exponent=  2.6444824490D+01 Coefficients=  2.5201602503D-01
     Exponent=  1.0393798285D+01 Coefficients=  3.9675535929D-01
     Exponent=  4.1606304559D+00 Coefficients=  2.3208624517D-01
 P 3 1.00
     Exponent=  1.5565737135D+01 Coefficients= -2.7129423974D-02
     Exponent=  2.1121544865D+00 Coefficients=  5.5109256629D-01
     Exponent=  8.4184709021D-01 Coefficients=  1.0090635806D+00
 P 1 1.00
     Exponent=  3.2297542652D-01 Coefficients=  1.0000000000D+00
 P 1 1.00
     Exponent=  8.9748000000D-02 Coefficients=  1.0000000000D+00
 D 4 1.00
     Exponent=  3.0989390993D+01 Coefficients=  1.1902837431D-02
     Exponent=  8.6905465069D+00 Coefficients=  6.7655856850D-02
     Exponent=  2.9520256337D+00 Coefficients=  2.1332539722D-01
     Exponent=  1.0761910745D+00 Coefficients=  3.8391075578D-01
 D 1 1.00
     Exponent=  3.8338915095D-01 Coefficients=  4.3354716259D-01
 D 1 1.00
     Exponent=  1.2534686113D-01 Coefficients=  2.4509263822D-01
 D 1 1.00
     Exponent=  4.1000000000D-02 Coefficients=  1.0000000000D+00
 F 1 1.00
     Exponent=  3.4500000000D-01 Coefficients=  1.0000000000D+00
 ****
 Ernie: Thresh=  0.10000D-02 Tol=  0.10000D-05 Strict=F.
 There are   934 symmetry adapted cartesian basis functions of A   symmetry.
 There are   875 symmetry adapted basis functions of A   symmetry.
   875 basis functions,  1564 primitive gaussians,   934 cartesian basis functions
   219 alpha electrons      219 beta electrons
       nuclear repulsion energy     10633.2691635923 Hartrees.
 IExCor= 7252 DFT=T Ex+Corr=MN15 ExCW=0 ScaHFX=  0.440000
 ScaDFX=  1.000000  1.000000  1.000000  1.000000 ScalE2=  1.000000  1.000000
 IRadAn=      5 IRanWt=     -1 IRanGd=            0 ICorTp=0 IEmpDi=  4
 NAtoms=   71 NActive=   71 NUniq=   71 SFac= 1.00D+00 NAtFMM=   60 NAOKFM=T Big=T
 Integral buffers will be    131072 words long.
 Raffenetti 2 integral format.
 Two-electron integral symmetry is turned on.
 Force inversion solution in PCM.
 ------------------------------------------------------------------------------
 Polarizable Continuum Model (PCM)
 =================================
 Model                : PCM.
 Atomic radii         : SMD-Coulomb.
 Polarization charges : Total charges.
 Charge compensation  : None.
 Solution method      : Matrix inversion.
 Cavity type          : VdW (van der Waals Surface) (Alpha=1.000).
 Cavity algorithm     : GePol (No added spheres)
                        Default sphere list used, NSphG=   71.
                        Lebedev-Laikov grids with approx.  5.0 points / Ang**2.
                        Smoothing algorithm: York/Karplus (Gamma=1.0000).
                        Polarization charges: spherical gaussians, with
                                              point-specific exponents (IZeta= 3).
                        Self-potential: point-specific (ISelfS= 7).
                        Self-field    : sphere-specific E.n sum rule (ISelfD= 2).
 1st derivatives      : Analytical E(r).r(x)/FMM algorithm (CHGder, D1EAlg=3).
                        Cavity 1st derivative terms included.
 2nd derivatives      : Analytical E(r).r(xy)/FMM algorithm (CHGder, D2EAlg=3).
                        Cavity 2nd derivative terms included.
 Solvent              : DiChloroEthane, Eps=  10.125000 Eps(inf)=   2.087447
 ------------------------------------------------------------------------------
 GePol: Number of generator spheres                  =      71
 GePol: Total number of spheres                      =      71
 GePol: Number of exposed spheres                    =      70 ( 98.59%)
 GePol: Number of points                             =    4928
 GePol: Average weight of points                     =       0.13
 GePol: Minimum weight of points                     =   0.26D-09
 GePol: Maximum weight of points                     =    0.21501
 GePol: Number of points with low weight             =     280
 GePol: Fraction of low-weight points (<1% of avg)   =       5.68%
 GePol: Cavity surface area                          =    628.480 Ang**2
 GePol: Cavity volume                                =    771.040 Ang**3
 ------------------------------------------------------------------------------
 Atomic radii for non-electrostatic terms: SMD-CDS.
 ------------------------------------------------------------------------------
 PCM non-electrostatic energy =         0.0054353419 Hartrees.
 Nuclear repulsion after PCM non-electrostatic terms =    10633.2745989342 Hartrees.
 Leave Link  301 at Mon Jun  2 07:33:29 2025, MaxMem= 12348030976 cpu:               5.0 elap:               0.3
 (Enter /sysapps/ubuntu-applications/gaussian-new/avx/g16/l302.exe)
 NPDir=0 NMtPBC=     1 NCelOv=     1 NCel=       1 NClECP=     1 NCelD=      1
         NCelK=      1 NCelE2=     1 NClLst=     1 CellRange=     0.0.
 One-electron integrals computed using PRISM.
 One-electron integral symmetry used in STVInt
 NBasis=   875 RedAO= T EigKep=  2.51D-04  NBF=   875
 NBsUse=   875 1.00D-06 EigRej= -1.00D+00 NBFU=   875
 Precomputing XC quadrature grid using
 IXCGrd= 4 IRadAn=           5 IRanWt=          -1 IRanGd=           0 AccXCQ= 0.00D+00.
 Generated NRdTot=       0 NPtTot=           0 NUsed=           0 NTot=          32
 NSgBfM=   890   886   889   890   890 MxSgAt=    71 MxSgA2=    71.
 Leave Link  302 at Mon Jun  2 07:33:32 2025, MaxMem= 12348030976 cpu:              63.3 elap:               2.7
 (Enter /sysapps/ubuntu-applications/gaussian-new/avx/g16/l303.exe)
 DipDrv:  MaxL=1.
 Leave Link  303 at Mon Jun  2 07:33:32 2025, MaxMem= 12348030976 cpu:               7.5 elap:               0.4
 (Enter /sysapps/ubuntu-applications/gaussian-new/avx/g16/l401.exe)
 ExpMin= 3.01D-02 ExpMax= 1.92D+05 ExpMxC= 1.85D+03 IAcc=3 IRadAn=         5 AccDes= 0.00D+00
 Harris functional with IExCor= 1009 and IRadAn=       5 diagonalized for initial guess.
 HarFok:  IExCor= 1009 AccDes= 0.00D+00 IRadAn=         5 IDoV= 1 UseB2=F ITyADJ=14
 ICtDFT=  3500011 ScaDFX=  1.000000  1.000000  1.000000  1.000000
 FoFCou: FMM=F IPFlag=           0 FMFlag=      100000 FMFlg1=        2001
         NFxFlg=           0 DoJE=T BraDBF=F KetDBF=T FulRan=T
         wScrn=  0.000000 ICntrl=       500 IOpCl=  0 I1Cent=   200000004 NGrid=           0
         NMat0=    1 NMatS0=      1 NMatT0=    0 NMatD0=    1 NMtDS0=    0 NMtDT0=    0
 Petite list used in FoFCou.
 Harris En= -4932.08360993640    
 JPrj=0 DoOrth=F DoCkMO=F.
 Leave Link  401 at Mon Jun  2 07:33:39 2025, MaxMem= 12348030976 cpu:             168.6 elap:               7.1
 (Enter /sysapps/ubuntu-applications/gaussian-new/avx/g16/l502.exe)
 Integral symmetry usage will be decided dynamically.
 Closed shell SCF:
 Using DIIS extrapolation, IDIIS=  1040.
 NGot= 12348030976 LenX= 12346253757 LenY= 12345380467
 Requested convergence on RMS density matrix=1.00D-08 within 500 cycles.
 Requested convergence on MAX density matrix=1.00D-06.
 Requested convergence on             energy=1.00D-06.
 No special actions if energy rises.
 Fock matrices will be formed incrementally for  20 cycles.

 Cycle   1  Pass 1  IDiag  1:
 FoFJK:  IHMeth= 1 ICntrl=       0 DoSepK=F KAlg= 0 I1Cent=           0 FoldK=F
 IRaf= 840000000 NMat=       1 IRICut=       1 DoRegI=T DoRafI=F ISym2E= 0 IDoP0=0 IntGTp=1.
 FoFCou: FMM=T IPFlag=           0 FMFlag=      100000 FMFlg1=        2001
         NFxFlg=           0 DoJE=F BraDBF=F KetDBF=F FulRan=T
         wScrn=  0.000000 ICntrl=         0 IOpCl=  0 I1Cent=           0 NGrid=           0
         NMat0=    1 NMatS0=      1 NMatT0=    0 NMatD0=    1 NMtDS0=    0 NMtDT0=    0
 Symmetry not used in FoFCou.
 FMM levels:  10  Number of levels for PrismC:   9
 Inv3:  Mode=1 IEnd=    72855552.
 Iteration    1 A*A^-1 deviation from unit magnitude is 7.11D-15 for   4896.
 Iteration    1 A*A^-1 deviation from orthogonality  is 5.97D-15 for   4898   4688.
 Iteration    1 A^-1*A deviation from unit magnitude is 7.33D-15 for   4896.
 Iteration    1 A^-1*A deviation from orthogonality  is 2.66D-15 for   4246   2407.
 E= -4930.42094236477    
 DIIS: error= 2.65D-02 at cycle   1 NSaved=   1.
 NSaved= 1 IEnMin= 1 EnMin= -4930.42094236477     IErMin= 1 ErrMin= 2.65D-02
 ErrMax= 2.65D-02  0.00D+00 EMaxC= 1.00D-01 BMatC= 1.95D+00 BMatP= 1.95D+00
 IDIUse=3 WtCom= 7.35D-01 WtEn= 2.65D-01
 Coeff-Com:  0.100D+01
 Coeff-En:   0.100D+01
 Coeff:      0.100D+01
 Gap=     0.193 Goal=   None    Shift=    0.000
 GapD=    0.193 DampG=1.000 DampE=0.250 DampFc=0.2500 IDamp=-1.
 Damping current iteration by 2.50D-01
 RMSDP=3.53D-03 MaxDP=3.49D-01              OVMax= 2.49D-01

 Cycle   2  Pass 1  IDiag  1:
 RMSU=  8.83D-04    CP:  9.98D-01
 E= -4930.94679254999     Delta-E=       -0.525850185220 Rises=F Damp=T
 DIIS: error= 1.14D-02 at cycle   2 NSaved=   2.
 NSaved= 2 IEnMin= 2 EnMin= -4930.94679254999     IErMin= 2 ErrMin= 1.14D-02
 ErrMax= 1.14D-02  0.00D+00 EMaxC= 1.00D-01 BMatC= 3.42D-01 BMatP= 1.95D+00
 IDIUse=3 WtCom= 8.86D-01 WtEn= 1.14D-01
 Coeff-Com: -0.576D+00 0.158D+01
 Coeff-En:   0.000D+00 0.100D+01
 Coeff:     -0.511D+00 0.151D+01
 Gap=     0.193 Goal=   None    Shift=    0.000
 RMSDP=9.72D-04 MaxDP=8.27D-02 DE=-5.26D-01 OVMax= 2.07D-01

 Cycle   3  Pass 1  IDiag  1:
 RMSU=  8.44D-04    CP:  9.92D-01  1.54D+00
 E= -4931.85875415928     Delta-E=       -0.911961609292 Rises=F Damp=F
 DIIS: error= 1.01D-02 at cycle   3 NSaved=   3.
 NSaved= 3 IEnMin= 3 EnMin= -4931.85875415928     IErMin= 3 ErrMin= 1.01D-02
 ErrMax= 1.01D-02  0.00D+00 EMaxC= 1.00D-01 BMatC= 5.31D-02 BMatP= 3.42D-01
 IDIUse=3 WtCom= 8.99D-01 WtEn= 1.01D-01
 Coeff-Com: -0.283D+00 0.671D+00 0.612D+00
 Coeff-En:   0.000D+00 0.000D+00 0.100D+01
 Coeff:     -0.254D+00 0.603D+00 0.652D+00
 Gap=     0.162 Goal=   None    Shift=    0.000
 RMSDP=4.94D-04 MaxDP=9.67D-02 DE=-9.12D-01 OVMax= 5.98D-02

 Cycle   4  Pass 1  IDiag  1:
 RMSU=  3.97D-04    CP:  9.95D-01  1.64D+00  6.70D-01
 E= -4931.88506433634     Delta-E=       -0.026310177058 Rises=F Damp=F
 DIIS: error= 7.97D-03 at cycle   4 NSaved=   4.
 NSaved= 4 IEnMin= 4 EnMin= -4931.88506433634     IErMin= 4 ErrMin= 7.97D-03
 ErrMax= 7.97D-03  0.00D+00 EMaxC= 1.00D-01 BMatC= 2.77D-02 BMatP= 5.31D-02
 IDIUse=3 WtCom= 9.20D-01 WtEn= 7.97D-02
 Coeff-Com: -0.107D+00 0.211D+00 0.429D+00 0.466D+00
 Coeff-En:   0.000D+00 0.000D+00 0.339D+00 0.661D+00
 Coeff:     -0.983D-01 0.195D+00 0.422D+00 0.482D+00
 Gap=     0.162 Goal=   None    Shift=    0.000
 RMSDP=2.41D-04 MaxDP=5.41D-02 DE=-2.63D-02 OVMax= 3.20D-02

 Cycle   5  Pass 1  IDiag  1:
 RMSU=  1.26D-04    CP:  9.95D-01  1.60D+00  7.98D-01  5.66D-01
 E= -4931.90774542768     Delta-E=       -0.022681091346 Rises=F Damp=F
 DIIS: error= 1.87D-03 at cycle   5 NSaved=   5.
 NSaved= 5 IEnMin= 5 EnMin= -4931.90774542768     IErMin= 5 ErrMin= 1.87D-03
 ErrMax= 1.87D-03  0.00D+00 EMaxC= 1.00D-01 BMatC= 2.04D-03 BMatP= 2.77D-02
 IDIUse=3 WtCom= 9.81D-01 WtEn= 1.87D-02
 Coeff-Com: -0.274D-01 0.375D-01 0.147D+00 0.263D+00 0.580D+00
 Coeff-En:   0.000D+00 0.000D+00 0.000D+00 0.131D-01 0.987D+00
 Coeff:     -0.269D-01 0.367D-01 0.145D+00 0.258D+00 0.587D+00
 Gap=     0.161 Goal=   None    Shift=    0.000
 RMSDP=5.76D-05 MaxDP=7.59D-03 DE=-2.27D-02 OVMax= 9.94D-03

 Cycle   6  Pass 1  IDiag  1:
 RMSU=  3.92D-05    CP:  9.94D-01  1.62D+00  7.99D-01  6.11D-01  7.15D-01
 E= -4931.90948243336     Delta-E=       -0.001737005678 Rises=F Damp=F
 DIIS: error= 5.01D-04 at cycle   6 NSaved=   6.
 NSaved= 6 IEnMin= 6 EnMin= -4931.90948243336     IErMin= 6 ErrMin= 5.01D-04
 ErrMax= 5.01D-04  0.00D+00 EMaxC= 1.00D-01 BMatC= 1.83D-04 BMatP= 2.04D-03
 IDIUse=3 WtCom= 9.95D-01 WtEn= 5.01D-03
 Coeff-Com: -0.466D-02-0.301D-03 0.311D-01 0.796D-01 0.297D+00 0.597D+00
 Coeff-En:   0.000D+00 0.000D+00 0.000D+00 0.000D+00 0.000D+00 0.100D+01
 Coeff:     -0.464D-02-0.299D-03 0.309D-01 0.792D-01 0.295D+00 0.599D+00
 Gap=     0.161 Goal=   None    Shift=    0.000
 RMSDP=1.99D-05 MaxDP=2.13D-03 DE=-1.74D-03 OVMax= 2.67D-03

 Cycle   7  Pass 1  IDiag  1:
 RMSU=  1.46D-05    CP:  9.94D-01  1.62D+00  8.05D-01  6.18D-01  7.84D-01
                    CP:  7.87D-01
 E= -4931.90962230035     Delta-E=       -0.000139866983 Rises=F Damp=F
 DIIS: error= 9.83D-05 at cycle   7 NSaved=   7.
 NSaved= 7 IEnMin= 7 EnMin= -4931.90962230035     IErMin= 7 ErrMin= 9.83D-05
 ErrMax= 9.83D-05  0.00D+00 EMaxC= 1.00D-01 BMatC= 2.83D-05 BMatP= 1.83D-04
 IDIUse=1 WtCom= 1.00D+00 WtEn= 0.00D+00
 Coeff-Com:  0.112D-03-0.371D-02-0.147D-03 0.125D-01 0.952D-01 0.339D+00
 Coeff-Com:  0.557D+00
 Coeff:      0.112D-03-0.371D-02-0.147D-03 0.125D-01 0.952D-01 0.339D+00
 Coeff:      0.557D+00
 Gap=     0.162 Goal=   None    Shift=    0.000
 RMSDP=7.02D-06 MaxDP=7.94D-04 DE=-1.40D-04 OVMax= 1.20D-03

 Cycle   8  Pass 1  IDiag  1:
 RMSU=  5.50D-06    CP:  9.94D-01  1.62D+00  8.05D-01  6.21D-01  7.95D-01
                    CP:  8.52D-01  7.94D-01
 E= -4931.90964611475     Delta-E=       -0.000023814408 Rises=F Damp=F
 DIIS: error= 2.59D-05 at cycle   8 NSaved=   8.
 NSaved= 8 IEnMin= 8 EnMin= -4931.90964611475     IErMin= 8 ErrMin= 2.59D-05
 ErrMax= 2.59D-05  0.00D+00 EMaxC= 1.00D-01 BMatC= 1.87D-06 BMatP= 2.83D-05
 IDIUse=1 WtCom= 1.00D+00 WtEn= 0.00D+00
 Coeff-Com:  0.636D-03-0.113D-02-0.484D-02-0.772D-02-0.955D-02 0.375D-01
 Coeff-Com:  0.224D+00 0.761D+00
 Coeff:      0.636D-03-0.113D-02-0.484D-02-0.772D-02-0.955D-02 0.375D-01
 Coeff:      0.224D+00 0.761D+00
 Gap=     0.162 Goal=   None    Shift=    0.000
 RMSDP=2.93D-06 MaxDP=2.31D-04 DE=-2.38D-05 OVMax= 8.96D-04

 Cycle   9  Pass 1  IDiag  1:
 RMSU=  2.12D-06    CP:  9.94D-01  1.62D+00  8.05D-01  6.22D-01  8.00D-01
                    CP:  8.84D-01  8.89D-01  1.02D+00
 E= -4931.90964844119     Delta-E=       -0.000002326437 Rises=F Damp=F
 DIIS: error= 9.34D-06 at cycle   9 NSaved=   9.
 NSaved= 9 IEnMin= 9 EnMin= -4931.90964844119     IErMin= 9 ErrMin= 9.34D-06
 ErrMax= 9.34D-06  0.00D+00 EMaxC= 1.00D-01 BMatC= 2.27D-07 BMatP= 1.87D-06
 IDIUse=1 WtCom= 1.00D+00 WtEn= 0.00D+00
 Coeff-Com:  0.290D-03-0.175D-03-0.194D-02-0.438D-02-0.128D-01-0.198D-01
 Coeff-Com:  0.384D-01 0.315D+00 0.685D+00
 Coeff:      0.290D-03-0.175D-03-0.194D-02-0.438D-02-0.128D-01-0.198D-01
 Coeff:      0.384D-01 0.315D+00 0.685D+00
 Gap=     0.162 Goal=   None    Shift=    0.000
 RMSDP=1.13D-06 MaxDP=1.23D-04 DE=-2.33D-06 OVMax= 2.81D-04

 Cycle  10  Pass 1  IDiag  1:
 RMSU=  6.97D-07    CP:  9.94D-01  1.62D+00  8.05D-01  6.22D-01  8.03D-01
                    CP:  8.94D-01  9.25D-01  1.10D+00  9.72D-01
 E= -4931.90964874490     Delta-E=       -0.000000303706 Rises=F Damp=F
 DIIS: error= 6.41D-06 at cycle  10 NSaved=  10.
 NSaved=10 IEnMin=10 EnMin= -4931.90964874490     IErMin=10 ErrMin= 6.41D-06
 ErrMax= 6.41D-06  0.00D+00 EMaxC= 1.00D-01 BMatC= 3.46D-08 BMatP= 2.27D-07
 IDIUse=1 WtCom= 1.00D+00 WtEn= 0.00D+00
 Coeff-Com:  0.458D-04 0.749D-04-0.950D-04-0.742D-03-0.422D-02-0.151D-01
 Coeff-Com: -0.141D-01 0.353D-01 0.287D+00 0.712D+00
 Coeff:      0.458D-04 0.749D-04-0.950D-04-0.742D-03-0.422D-02-0.151D-01
 Coeff:     -0.141D-01 0.353D-01 0.287D+00 0.712D+00
 Gap=     0.162 Goal=   None    Shift=    0.000
 RMSDP=4.94D-07 MaxDP=6.86D-05 DE=-3.04D-07 OVMax= 1.51D-04

 Cycle  11  Pass 1  IDiag  1:
 RMSU=  3.09D-07    CP:  9.94D-01  1.62D+00  8.06D-01  6.21D-01  8.04D-01
                    CP:  8.96D-01  9.37D-01  1.14D+00  1.07D+00  1.03D+00
 E= -4931.90964879565     Delta-E=       -0.000000050757 Rises=F Damp=F
 DIIS: error= 2.03D-06 at cycle  11 NSaved=  11.
 NSaved=11 IEnMin=11 EnMin= -4931.90964879565     IErMin=11 ErrMin= 2.03D-06
 ErrMax= 2.03D-06  0.00D+00 EMaxC= 1.00D-01 BMatC= 9.30D-09 BMatP= 3.46D-08
 IDIUse=1 WtCom= 1.00D+00 WtEn= 0.00D+00
 Coeff-Com: -0.197D-04 0.583D-04 0.311D-03 0.437D-03 0.418D-04-0.472D-02
 Coeff-Com: -0.146D-01-0.395D-01 0.106D-01 0.372D+00 0.675D+00
 Coeff:     -0.197D-04 0.583D-04 0.311D-03 0.437D-03 0.418D-04-0.472D-02
 Coeff:     -0.146D-01-0.395D-01 0.106D-01 0.372D+00 0.675D+00
 Gap=     0.162 Goal=   None    Shift=    0.000
 RMSDP=2.30D-07 MaxDP=2.06D-05 DE=-5.08D-08 OVMax= 7.05D-05

 Cycle  12  Pass 1  IDiag  1:
 RMSU=  1.21D-07    CP:  9.94D-01  1.62D+00  8.06D-01  6.21D-01  8.04D-01
                    CP:  8.97D-01  9.41D-01  1.16D+00  1.12D+00  1.15D+00
                    CP:  9.63D-01
 E= -4931.90964880730     Delta-E=       -0.000000011645 Rises=F Damp=F
 DIIS: error= 6.80D-07 at cycle  12 NSaved=  12.
 NSaved=12 IEnMin=12 EnMin= -4931.90964880730     IErMin=12 ErrMin= 6.80D-07
 ErrMax= 6.80D-07  0.00D+00 EMaxC= 1.00D-01 BMatC= 1.22D-09 BMatP= 9.30D-09
 IDIUse=1 WtCom= 1.00D+00 WtEn= 0.00D+00
 Coeff-Com: -0.113D-04 0.129D-04 0.160D-03 0.312D-03 0.550D-03-0.297D-03
 Coeff-Com: -0.519D-02-0.234D-01-0.345D-01 0.792D-01 0.329D+00 0.654D+00
 Coeff:     -0.113D-04 0.129D-04 0.160D-03 0.312D-03 0.550D-03-0.297D-03
 Coeff:     -0.519D-02-0.234D-01-0.345D-01 0.792D-01 0.329D+00 0.654D+00
 Gap=     0.162 Goal=   None    Shift=    0.000
 RMSDP=7.85D-08 MaxDP=1.07D-05 DE=-1.16D-08 OVMax= 2.62D-05

 Cycle  13  Pass 1  IDiag  1:
 RMSU=  3.93D-08    CP:  9.94D-01  1.62D+00  8.06D-01  6.21D-01  8.04D-01
                    CP:  8.97D-01  9.43D-01  1.16D+00  1.13D+00  1.21D+00
                    CP:  1.07D+00  9.47D-01
 E= -4931.90964880868     Delta-E=       -0.000000001381 Rises=F Damp=F
 DIIS: error= 2.01D-07 at cycle  13 NSaved=  13.
 NSaved=13 IEnMin=13 EnMin= -4931.90964880868     IErMin=13 ErrMin= 2.01D-07
 ErrMax= 2.01D-07  0.00D+00 EMaxC= 1.00D-01 BMatC= 1.44D-10 BMatP= 1.22D-09
 IDIUse=1 WtCom= 1.00D+00 WtEn= 0.00D+00
 Coeff-Com: -0.138D-05-0.335D-05 0.332D-04 0.875D-04 0.243D-03 0.495D-03
 Coeff-Com: -0.403D-03-0.502D-02-0.159D-01-0.139D-01 0.628D-01 0.299D+00
 Coeff-Com:  0.673D+00
 Coeff:     -0.138D-05-0.335D-05 0.332D-04 0.875D-04 0.243D-03 0.495D-03
 Coeff:     -0.403D-03-0.502D-02-0.159D-01-0.139D-01 0.628D-01 0.299D+00
 Coeff:      0.673D+00
 Gap=     0.162 Goal=   None    Shift=    0.000
 RMSDP=2.85D-08 MaxDP=4.98D-06 DE=-1.38D-09 OVMax= 9.87D-06

 Cycle  14  Pass 1  IDiag  1:
 RMSU=  1.57D-08    CP:  9.94D-01  1.62D+00  8.06D-01  6.21D-01  8.04D-01
                    CP:  8.97D-01  9.43D-01  1.17D+00  1.14D+00  1.22D+00
                    CP:  1.11D+00  1.03D+00  9.38D-01
 E= -4931.90964880883     Delta-E=       -0.000000000149 Rises=F Damp=F
 DIIS: error= 1.13D-07 at cycle  14 NSaved=  14.
 NSaved=14 IEnMin=14 EnMin= -4931.90964880883     IErMin=14 ErrMin= 1.13D-07
 ErrMax= 1.13D-07  0.00D+00 EMaxC= 1.00D-01 BMatC= 2.12D-11 BMatP= 1.44D-10
 IDIUse=1 WtCom= 1.00D+00 WtEn= 0.00D+00
 Coeff-Com:  0.100D-05-0.311D-05-0.863D-05-0.696D-05 0.294D-04 0.275D-03
 Coeff-Com:  0.577D-03 0.125D-02-0.181D-02-0.200D-01-0.228D-01 0.333D-01
 Coeff-Com:  0.307D+00 0.702D+00
 Coeff:      0.100D-05-0.311D-05-0.863D-05-0.696D-05 0.294D-04 0.275D-03
 Coeff:      0.577D-03 0.125D-02-0.181D-02-0.200D-01-0.228D-01 0.333D-01
 Coeff:      0.307D+00 0.702D+00
 Gap=     0.162 Goal=   None    Shift=    0.000
 RMSDP=1.23D-08 MaxDP=1.83D-06 DE=-1.49D-10 OVMax= 4.38D-06

 Cycle  15  Pass 1  IDiag  1:
 RMSU=  6.46D-09    CP:  9.94D-01  1.62D+00  8.06D-01  6.21D-01  8.04D-01
                    CP:  8.97D-01  9.43D-01  1.17D+00  1.14D+00  1.23D+00
                    CP:  1.13D+00  1.08D+00  1.05D+00  9.47D-01
 E= -4931.90964880900     Delta-E=       -0.000000000176 Rises=F Damp=F
 DIIS: error= 4.09D-08 at cycle  15 NSaved=  15.
 NSaved=15 IEnMin=15 EnMin= -4931.90964880900     IErMin=15 ErrMin= 4.09D-08
 ErrMax= 4.09D-08  0.00D+00 EMaxC= 1.00D-01 BMatC= 3.12D-12 BMatP= 2.12D-11
 IDIUse=1 WtCom= 1.00D+00 WtEn= 0.00D+00
 Coeff-Com:  0.386D-06-0.541D-06-0.799D-05-0.147D-04-0.176D-04 0.494D-04
 Coeff-Com:  0.293D-03 0.121D-02 0.159D-02-0.676D-02-0.188D-01-0.312D-01
 Coeff-Com:  0.279D-01 0.312D+00 0.714D+00
 Coeff:      0.386D-06-0.541D-06-0.799D-05-0.147D-04-0.176D-04 0.494D-04
 Coeff:      0.293D-03 0.121D-02 0.159D-02-0.676D-02-0.188D-01-0.312D-01
 Coeff:      0.279D-01 0.312D+00 0.714D+00
 Gap=     0.162 Goal=   None    Shift=    0.000
 RMSDP=5.15D-09 MaxDP=8.58D-07 DE=-1.76D-10 OVMax= 1.69D-06

 Error on total polarization charges =  0.02859
 SCF Done:  E(RMN15) =  -4931.90964881     A.U. after   15 cycles
            NFock= 15  Conv=0.51D-08     -V/T= 2.0065
 KE= 4.900287332782D+03 PE=-3.289879960907D+04 EE= 1.243332802855D+04
 SMD-CDS (non-electrostatic) energy       (kcal/mol) =       3.41
 (included in total energy above)
 Leave Link  502 at Mon Jun  2 07:44:48 2025, MaxMem= 12348030976 cpu:           15851.3 elap:             668.4
 (Enter /sysapps/ubuntu-applications/gaussian-new/avx/g16/l801.exe)
 DoSCS=F DFT=T ScalE2(SS,OS)=  1.000000  1.000000
 Range of M.O.s used for correlation:     1   875
 NBasis=   875 NAE=   219 NBE=   219 NFC=     0 NFV=     0
 NROrb=    875 NOA=   219 NOB=   219 NVA=   656 NVB=   656
 Leave Link  801 at Mon Jun  2 07:44:48 2025, MaxMem= 12348030976 cpu:               1.8 elap:               0.1
 (Enter /sysapps/ubuntu-applications/gaussian-new/avx/g16/l1101.exe)
 Using compressed storage, NAtomX=    71.
 Will process     72 centers per pass.
 Leave Link 1101 at Mon Jun  2 07:44:54 2025, MaxMem= 12348030976 cpu:             154.1 elap:               6.5
 (Enter /sysapps/ubuntu-applications/gaussian-new/avx/g16/l1102.exe)
 Symmetrizing basis deriv contribution to polar:
 IMax=3 JMax=2 DiffMx= 0.00D+00
 Leave Link 1102 at Mon Jun  2 07:44:55 2025, MaxMem= 12348030976 cpu:               8.0 elap:               0.4
 (Enter /sysapps/ubuntu-applications/gaussian-new/avx/g16/l1110.exe)
 Forming Gx(P) for the SCF density, NAtomX=    71.
 Integral derivatives from FoFJK, PRISM(SPDF).
 Do as many integral derivatives as possible in FoFJK.
 G2DrvN: MDV=   12348024876.
 G2DrvN: will do    72 centers at a time, making    1 passes.
 Calling FoFCou, ICntrl=  3107 FMM=T I1Cent=   0 AccDes= 0.00D+00.
 FoFJK:  IHMeth= 1 ICntrl=    3107 DoSepK=F KAlg= 0 I1Cent=           0 FoldK=F
 IRaf=         0 NMat=       1 IRICut=       1 DoRegI=T DoRafI=F ISym2E= 0 IDoP0=0 IntGTp=1.
 FoFCou: FMM=T IPFlag=           0 FMFlag=      100000 FMFlg1=        2001
         NFxFlg=           0 DoJE=F BraDBF=F KetDBF=F FulRan=T
         wScrn=  0.000000 ICntrl=      3107 IOpCl=  0 I1Cent=           0 NGrid=           0
         NMat0=    1 NMatS0=      1 NMatT0=    0 NMatD0=    1 NMtDS0=    0 NMtDT0=    0
 Symmetry not used in FoFCou.
 FMM levels:  10  Number of levels for PrismC:   9
 NEqPCM:  Using equilibrium solvation (IEInf=0, Eps=  10.1250, EpsInf=   2.0874)
 G2PCM: DoFxE=T DoFxN=T DoGrad=T DoDP/DQ/DG/TGxP=FFFF NFrqRd=   0 IEInf=0 SqF1=F DoCFld=F IF1Alg=4.
 GePol: Maximum number of non-zero 1st derivatives   =     270
 End of G2Drv F.D. properties file   721 does not exist.
 End of G2Drv F.D. properties file   722 does not exist.
 End of G2Drv F.D. properties file   788 does not exist.
 Leave Link 1110 at Mon Jun  2 08:18:33 2025, MaxMem= 12348030976 cpu:           48361.9 elap:            2017.8
 (Enter /sysapps/ubuntu-applications/gaussian-new/avx/g16/l1002.exe)
 Minotr:  Closed shell wavefunction.
          IDoAtm=11111111111111111111111111111111111111111111111111
          IDoAtm=111111111111111111111
 NEqPCM:  Using equilibrium solvation (IEInf=0, Eps=  10.1250, EpsInf=   2.0874)
          Direct CPHF calculation.
          Differentiating once with respect to electric field.
                with respect to dipole field.
          Differentiating once with respect to nuclear coordinates.
          Requested convergence is 1.0D-08 RMS, and 1.0D-07 maximum.
          Secondary convergence is 1.0D-12 RMS, and 1.0D-12 maximum.
          NewPWx=T KeepS1=F KeepF1=F KeepIn=T MapXYZ=F SortEE=F KeepMc=T.
        21922 words used for storage of precomputed grid.
 Two-electron integrals replicated using symmetry.
          MDV=   12348030976 using IRadAn=       1.
          Solving linear equations simultaneously, MaxMat=      72.
 FoF2E skips out because all densities are zero.
 CalDSu exits because no D1Ps are significant.
 FoFJK:  IHMeth= 1 ICntrl=       0 DoSepK=F KAlg= 0 I1Cent=           0 FoldK=F
 IRaf= 780000000 NMat=      72 IRICut=       1 DoRegI=T DoRafI=F ISym2E= 2 IDoP0=3 IntGTp=3.
          There are   216 degrees of freedom in the 1st order CPHF.  IDoFFX=6 NUNeed=     3.
    216 vectors produced by pass  0 Test12= 1.44D-13 1.00D-09 XBig12= 3.48D+02 1.21D+01.
 AX will form    72 AO Fock derivatives at one time.
    213 vectors produced by pass  1 Test12= 1.44D-13 1.00D-09 XBig12= 6.09D+01 9.72D-01.
    213 vectors produced by pass  2 Test12= 1.44D-13 1.00D-09 XBig12= 1.74D+00 1.26D-01.
    213 vectors produced by pass  3 Test12= 1.44D-13 1.00D-09 XBig12= 2.13D-02 1.17D-02.
    213 vectors produced by pass  4 Test12= 1.44D-13 1.00D-09 XBig12= 1.42D-04 1.05D-03.
    213 vectors produced by pass  5 Test12= 1.44D-13 1.00D-09 XBig12= 6.81D-07 5.14D-05.
    174 vectors produced by pass  6 Test12= 1.44D-13 1.00D-09 XBig12= 2.55D-09 2.93D-06.
     45 vectors produced by pass  7 Test12= 1.44D-13 1.00D-09 XBig12= 8.39D-12 1.71D-07.
      3 vectors produced by pass  8 Test12= 1.44D-13 1.00D-09 XBig12= 2.63D-14 1.19D-08.
      3 vectors produced by pass  9 Test12= 1.44D-13 1.00D-09 XBig12= 1.12D-15 1.53D-09.
      3 vectors produced by pass 10 Test12= 1.44D-13 1.00D-09 XBig12= 8.62D-15 4.17D-09.
      2 vectors produced by pass 11 Test12= 1.44D-13 1.00D-09 XBig12= 1.77D-15 1.58D-09.
 InvSVY:  IOpt=1 It=  1 EMax= 1.42D-14
 Solved reduced A of dimension  1511 with   216 vectors.
 FullF1:  Do perturbations      1 to       3.
 Isotropic polarizability for W=    0.000000      545.17 Bohr**3.
 End of Minotr F.D. properties file   721 does not exist.
 End of Minotr F.D. properties file   722 does not exist.
 End of Minotr F.D. properties file   788 does not exist.
 Leave Link 1002 at Mon Jun  2 09:44:55 2025, MaxMem= 12348030976 cpu:          124245.5 elap:            5181.6
 (Enter /sysapps/ubuntu-applications/gaussian-new/avx/g16/l601.exe)
 Copying SCF densities to generalized density rwf, IOpCl= 0 IROHF=0.

 **********************************************************************

            Population analysis using the SCF density.

 **********************************************************************

 Orbital symmetries:
       Occupied  (A) (A) (A) (A) (A) (A) (A) (A) (A) (A) (A) (A)
                 (A) (A) (A) (A) (A) (A) (A) (A) (A) (A) (A) (A)
                 (A) (A) (A) (A) (A) (A) (A) (A) (A) (A) (A) (A)
                 (A) (A) (A) (A) (A) (A) (A) (A) (A) (A) (A) (A)
                 (A) (A) (A) (A) (A) (A) (A) (A) (A) (A) (A) (A)
                 (A) (A) (A) (A) (A) (A) (A) (A) (A) (A) (A) (A)
                 (A) (A) (A) (A) (A) (A) (A) (A) (A) (A) (A) (A)
                 (A) (A) (A) (A) (A) (A) (A) (A) (A) (A) (A) (A)
                 (A) (A) (A) (A) (A) (A) (A) (A) (A) (A) (A) (A)
                 (A) (A) (A) (A) (A) (A) (A) (A) (A) (A) (A) (A)
                 (A) (A) (A) (A) (A) (A) (A) (A) (A) (A) (A) (A)
                 (A) (A) (A) (A) (A) (A) (A) (A) (A) (A) (A) (A)
                 (A) (A) (A) (A) (A) (A) (A) (A) (A) (A) (A) (A)
                 (A) (A) (A) (A) (A) (A) (A) (A) (A) (A) (A) (A)
                 (A) (A) (A) (A) (A) (A) (A) (A) (A) (A) (A) (A)
                 (A) (A) (A) (A) (A) (A) (A) (A) (A) (A) (A) (A)
                 (A) (A) (A) (A) (A) (A) (A) (A) (A) (A) (A) (A)
                 (A) (A) (A) (A) (A) (A) (A) (A) (A) (A) (A) (A)
                 (A) (A) (A)
       Virtual   (A) (A) (A) (A) (A) (A) (A) (A) (A) (A) (A) (A)
                 (A) (A) (A) (A) (A) (A) (A) (A) (A) (A) (A) (A)
                 (A) (A) (A) (A) (A) (A) (A) (A) (A) (A) (A) (A)
                 (A) (A) (A) (A) (A) (A) (A) (A) (A) (A) (A) (A)
                 (A) (A) (A) (A) (A) (A) (A) (A) (A) (A) (A) (A)
                 (A) (A) (A) (A) (A) (A) (A) (A) (A) (A) (A) (A)
                 (A) (A) (A) (A) (A) (A) (A) (A) (A) (A) (A) (A)
                 (A) (A) (A) (A) (A) (A) (A) (A) (A) (A) (A) (A)
                 (A) (A) (A) (A) (A) (A) (A) (A) (A) (A) (A) (A)
                 (A) (A) (A) (A) (A) (A) (A) (A) (A) (A) (A) (A)
                 (A) (A) (A) (A) (A) (A) (A) (A) (A) (A) (A) (A)
                 (A) (A) (A) (A) (A) (A) (A) (A) (A) (A) (A) (A)
                 (A) (A) (A) (A) (A) (A) (A) (A) (A) (A) (A) (A)
                 (A) (A) (A) (A) (A) (A) (A) (A) (A) (A) (A) (A)
                 (A) (A) (A) (A) (A) (A) (A) (A) (A) (A) (A) (A)
                 (A) (A) (A) (A) (A) (A) (A) (A) (A) (A) (A) (A)
                 (A) (A) (A) (A) (A) (A) (A) (A) (A) (A) (A) (A)
                 (A) (A) (A) (A) (A) (A) (A) (A) (A) (A) (A) (A)
                 (A) (A) (A) (A) (A) (A) (A) (A) (A) (A) (A) (A)
                 (A) (A) (A) (A) (A) (A) (A) (A) (A) (A) (A) (A)
                 (A) (A) (A) (A) (A) (A) (A) (A) (A) (A) (A) (A)
                 (A) (A) (A) (A) (A) (A) (A) (A) (A) (A) (A) (A)
                 (A) (A) (A) (A) (A) (A) (A) (A) (A) (A) (A) (A)
                 (A) (A) (A) (A) (A) (A) (A) (A) (A) (A) (A) (A)
                 (A) (A) (A) (A) (A) (A) (A) (A) (A) (A) (A) (A)
                 (A) (A) (A) (A) (A) (A) (A) (A) (A) (A) (A) (A)
                 (A) (A) (A) (A) (A) (A) (A) (A) (A) (A) (A) (A)
                 (A) (A) (A) (A) (A) (A) (A) (A) (A) (A) (A) (A)
                 (A) (A) (A) (A) (A) (A) (A) (A) (A) (A) (A) (A)
                 (A) (A) (A) (A) (A) (A) (A) (A) (A) (A) (A) (A)
                 (A) (A) (A) (A) (A) (A) (A) (A) (A) (A) (A) (A)
                 (A) (A) (A) (A) (A) (A) (A) (A) (A) (A) (A) (A)
                 (A) (A) (A) (A) (A) (A) (A) (A) (A) (A) (A) (A)
                 (A) (A) (A) (A) (A) (A) (A) (A) (A) (A) (A) (A)
                 (A) (A) (A) (A) (A) (A) (A) (A) (A) (A) (A) (A)
                 (A) (A) (A) (A) (A) (A) (A) (A) (A) (A) (A) (A)
                 (A) (A) (A) (A) (A) (A) (A) (A) (A) (A) (A) (A)
                 (A) (A) (A) (A) (A) (A) (A) (A) (A) (A) (A) (A)
                 (A) (A) (A) (A) (A) (A) (A) (A) (A) (A) (A) (A)
                 (A) (A) (A) (A) (A) (A) (A) (A) (A) (A) (A) (A)
                 (A) (A) (A) (A) (A) (A) (A) (A) (A) (A) (A) (A)
                 (A) (A) (A) (A) (A) (A) (A) (A) (A) (A) (A) (A)
                 (A) (A) (A) (A) (A) (A) (A) (A) (A) (A) (A) (A)
                 (A) (A) (A) (A) (A) (A) (A) (A) (A) (A) (A) (A)
                 (A) (A) (A) (A) (A) (A) (A) (A) (A) (A) (A) (A)
                 (A) (A) (A) (A) (A) (A) (A) (A) (A) (A) (A) (A)
                 (A) (A) (A) (A) (A) (A) (A) (A) (A) (A) (A) (A)
                 (A) (A) (A) (A) (A) (A) (A) (A) (A) (A) (A) (A)
                 (A) (A) (A) (A) (A) (A) (A) (A) (A) (A) (A) (A)
                 (A) (A) (A) (A) (A) (A) (A) (A) (A) (A) (A) (A)
                 (A) (A) (A) (A) (A) (A) (A) (A) (A) (A) (A) (A)
                 (A) (A) (A) (A) (A) (A) (A) (A) (A) (A) (A) (A)
                 (A) (A) (A) (A) (A) (A) (A) (A) (A) (A) (A) (A)
                 (A) (A) (A) (A) (A) (A) (A) (A) (A) (A) (A) (A)
                 (A) (A) (A) (A) (A) (A) (A) (A)
 The electronic state is 1-A.
 Alpha  occ. eigenvalues -- -160.19974 -88.05613 -88.05509 -88.05131 -24.33982
 Alpha  occ. eigenvalues --  -24.33880 -24.33837 -24.33818 -24.33759 -24.33674
 Alpha  occ. eigenvalues --  -24.33461 -24.33436 -24.33283 -18.87349 -18.87313
 Alpha  occ. eigenvalues --  -18.84152 -18.84070 -18.84045 -18.83615 -18.83311
 Alpha  occ. eigenvalues --  -18.83170 -18.83093 -18.83082 -18.83080 -18.82901
 Alpha  occ. eigenvalues --  -18.82583 -17.18563 -14.48737 -14.48682 -14.48589
 Alpha  occ. eigenvalues --  -14.28551 -14.19297 -14.12783 -14.11967 -10.33223
 Alpha  occ. eigenvalues --  -10.33170 -10.32796 -10.20626 -10.20552 -10.16440
 Alpha  occ. eigenvalues --  -10.15871 -10.14113 -10.14102 -10.12446 -10.12000
 Alpha  occ. eigenvalues --  -10.11885 -10.11390 -10.10454 -10.10266 -10.08612
 Alpha  occ. eigenvalues --  -10.08099 -10.07990 -10.07957 -10.07786 -10.07003
 Alpha  occ. eigenvalues --  -10.06943 -10.06899  -7.95460  -7.95274  -7.94919
 Alpha  occ. eigenvalues --   -6.14973  -6.14929  -6.14813  -6.14802  -6.14735
 Alpha  occ. eigenvalues --   -6.14644  -6.14434  -6.14387  -6.14284  -2.14860
 Alpha  occ. eigenvalues --   -1.39518  -1.39413  -1.39051  -1.37712  -1.37515
 Alpha  occ. eigenvalues --   -1.37174  -1.27663  -1.27652  -1.27530  -1.27407
 Alpha  occ. eigenvalues --   -1.27137  -1.27047  -1.19986  -1.19519  -1.19119
 Alpha  occ. eigenvalues --   -1.16266  -1.16050  -1.15483  -1.06987  -1.06471
 Alpha  occ. eigenvalues --   -1.06163  -1.05987  -1.05010  -1.04849  -1.04651
 Alpha  occ. eigenvalues --   -1.04235  -0.97845  -0.95191  -0.94784  -0.92404
 Alpha  occ. eigenvalues --   -0.91265  -0.88930  -0.84102  -0.82573  -0.79939
 Alpha  occ. eigenvalues --   -0.79858  -0.79756  -0.78985  -0.78798  -0.77511
 Alpha  occ. eigenvalues --   -0.77011  -0.74166  -0.73018  -0.72060  -0.71740
 Alpha  occ. eigenvalues --   -0.71271  -0.69267  -0.67868  -0.67729  -0.67369
 Alpha  occ. eigenvalues --   -0.67174  -0.67167  -0.67044  -0.66680  -0.65881
 Alpha  occ. eigenvalues --   -0.64234  -0.63575  -0.62687  -0.62280  -0.61781
 Alpha  occ. eigenvalues --   -0.61117  -0.60842  -0.59999  -0.59588  -0.58633
 Alpha  occ. eigenvalues --   -0.57500  -0.57259  -0.57073  -0.56830  -0.56495
 Alpha  occ. eigenvalues --   -0.56167  -0.55957  -0.55690  -0.55509  -0.55237
 Alpha  occ. eigenvalues --   -0.54866  -0.54820  -0.54620  -0.54370  -0.54322
 Alpha  occ. eigenvalues --   -0.53837  -0.53708  -0.53642  -0.53360  -0.53078
 Alpha  occ. eigenvalues --   -0.52974  -0.52766  -0.52414  -0.51804  -0.51626
 Alpha  occ. eigenvalues --   -0.51398  -0.51127  -0.51075  -0.50966  -0.50719
 Alpha  occ. eigenvalues --   -0.50686  -0.49327  -0.48979  -0.48831  -0.48683
 Alpha  occ. eigenvalues --   -0.48595  -0.48487  -0.47529  -0.47110  -0.46568
 Alpha  occ. eigenvalues --   -0.46467  -0.46103  -0.45647  -0.45151  -0.44870
 Alpha  occ. eigenvalues --   -0.44283  -0.44069  -0.43766  -0.43532  -0.43188
 Alpha  occ. eigenvalues --   -0.43052  -0.42337  -0.41838  -0.41778  -0.41295
 Alpha  occ. eigenvalues --   -0.40968  -0.40597  -0.40389  -0.40273  -0.40094
 Alpha  occ. eigenvalues --   -0.40066  -0.39749  -0.39494  -0.39293  -0.38993
 Alpha  occ. eigenvalues --   -0.38847  -0.38811  -0.38259  -0.38115  -0.37943
 Alpha  occ. eigenvalues --   -0.37604  -0.37493  -0.37271  -0.36847  -0.36578
 Alpha  occ. eigenvalues --   -0.35908  -0.35710  -0.35351  -0.35170  -0.35066
 Alpha  occ. eigenvalues --   -0.33080  -0.30450  -0.28231  -0.25757
 Alpha virt. eigenvalues --   -0.09588  -0.07357  -0.04806  -0.02119  -0.00411
 Alpha virt. eigenvalues --    0.00115   0.00276   0.00773   0.02474   0.02657
 Alpha virt. eigenvalues --    0.03791   0.05124   0.05629   0.07147   0.07348
 Alpha virt. eigenvalues --    0.08732   0.09315   0.09626   0.09754   0.09863
 Alpha virt. eigenvalues --    0.10066   0.10238   0.10486   0.10740   0.11132
 Alpha virt. eigenvalues --    0.11358   0.11437   0.11734   0.12145   0.12551
 Alpha virt. eigenvalues --    0.13077   0.13391   0.13694   0.14139   0.14584
 Alpha virt. eigenvalues --    0.15047   0.15303   0.15519   0.15959   0.16379
 Alpha virt. eigenvalues --    0.16663   0.17097   0.17301   0.17565   0.18051
 Alpha virt. eigenvalues --    0.18153   0.18637   0.18715   0.19266   0.19385
 Alpha virt. eigenvalues --    0.19520   0.20066   0.20729   0.20850   0.21516
 Alpha virt. eigenvalues --    0.21877   0.22236   0.22985   0.23121   0.23679
 Alpha virt. eigenvalues --    0.23925   0.24228   0.24792   0.25064   0.25561
 Alpha virt. eigenvalues --    0.25848   0.25954   0.26847   0.26913   0.27320
 Alpha virt. eigenvalues --    0.27534   0.27731   0.28157   0.28781   0.29054
 Alpha virt. eigenvalues --    0.29255   0.29771   0.30768   0.31045   0.31735
 Alpha virt. eigenvalues --    0.32225   0.32507   0.32895   0.33579   0.34042
 Alpha virt. eigenvalues --    0.34687   0.34927   0.35318   0.37014   0.37329
 Alpha virt. eigenvalues --    0.38470   0.39079   0.39828   0.40386   0.40865
 Alpha virt. eigenvalues --    0.41094   0.41347   0.41577   0.42597   0.43015
 Alpha virt. eigenvalues --    0.43672   0.43754   0.44186   0.44540   0.45433
 Alpha virt. eigenvalues --    0.45905   0.46174   0.47218   0.47425   0.47665
 Alpha virt. eigenvalues --    0.47860   0.48184   0.48395   0.48603   0.49085
 Alpha virt. eigenvalues --    0.49445   0.49532   0.49797   0.50214   0.50509
 Alpha virt. eigenvalues --    0.50582   0.51398   0.51611   0.51677   0.51944
 Alpha virt. eigenvalues --    0.52304   0.53205   0.53431   0.53840   0.54483
 Alpha virt. eigenvalues --    0.54828   0.55037   0.55823   0.56346   0.57215
 Alpha virt. eigenvalues --    0.57297   0.57841   0.58041   0.58566   0.59361
 Alpha virt. eigenvalues --    0.60180   0.60442   0.61110   0.61733   0.62050
 Alpha virt. eigenvalues --    0.62536   0.63077   0.63799   0.63987   0.64074
 Alpha virt. eigenvalues --    0.64614   0.64946   0.65523   0.65528   0.66468
 Alpha virt. eigenvalues --    0.66598   0.66703   0.67135   0.67529   0.67668
 Alpha virt. eigenvalues --    0.68048   0.68250   0.68401   0.68732   0.69001
 Alpha virt. eigenvalues --    0.69365   0.69867   0.70269   0.70626   0.70818
 Alpha virt. eigenvalues --    0.71054   0.71253   0.71480   0.71588   0.71902
 Alpha virt. eigenvalues --    0.72162   0.72242   0.72804   0.73093   0.73288
 Alpha virt. eigenvalues --    0.73381   0.73793   0.74140   0.74353   0.74625
 Alpha virt. eigenvalues --    0.75086   0.75464   0.75661   0.76127   0.76355
 Alpha virt. eigenvalues --    0.76910   0.77242   0.78036   0.78099   0.79172
 Alpha virt. eigenvalues --    0.79677   0.80111   0.81249   0.81515   0.82380
 Alpha virt. eigenvalues --    0.82700   0.83251   0.84272   0.85148   0.85674
 Alpha virt. eigenvalues --    0.86163   0.86379   0.87084   0.87371   0.87986
 Alpha virt. eigenvalues --    0.88624   0.89083   0.89501   0.89951   0.90885
 Alpha virt. eigenvalues --    0.91141   0.91419   0.92100   0.93367   0.93897
 Alpha virt. eigenvalues --    0.94743   0.94950   0.95629   0.96170   0.96497
 Alpha virt. eigenvalues --    0.96880   0.97301   0.97770   0.98422   0.98654
 Alpha virt. eigenvalues --    0.98979   0.99499   0.99886   1.00488   1.01313
 Alpha virt. eigenvalues --    1.02115   1.02483   1.03089   1.03861   1.04371
 Alpha virt. eigenvalues --    1.05486   1.05896   1.06483   1.06876   1.07026
 Alpha virt. eigenvalues --    1.07383   1.08027   1.08495   1.08747   1.09433
 Alpha virt. eigenvalues --    1.10013   1.10405   1.10895   1.11484   1.11818
 Alpha virt. eigenvalues --    1.12117   1.12598   1.12882   1.12981   1.13098
 Alpha virt. eigenvalues --    1.13682   1.14000   1.14638   1.14854   1.14965
 Alpha virt. eigenvalues --    1.15645   1.15926   1.16687   1.17022   1.17098
 Alpha virt. eigenvalues --    1.17438   1.17822   1.18374   1.18936   1.19484
 Alpha virt. eigenvalues --    1.20146   1.20698   1.21096   1.21474   1.21776
 Alpha virt. eigenvalues --    1.22236   1.22314   1.22456   1.22722   1.23249
 Alpha virt. eigenvalues --    1.23521   1.23642   1.23738   1.24762   1.25547
 Alpha virt. eigenvalues --    1.25911   1.26063   1.26807   1.27274   1.27668
 Alpha virt. eigenvalues --    1.27942   1.29173   1.29394   1.29867   1.30201
 Alpha virt. eigenvalues --    1.30507   1.31336   1.31757   1.32047   1.32586
 Alpha virt. eigenvalues --    1.33342   1.33968   1.34726   1.35257   1.35578
 Alpha virt. eigenvalues --    1.36152   1.36523   1.36928   1.37541   1.38226
 Alpha virt. eigenvalues --    1.38644   1.39090   1.39519   1.40178   1.40906
 Alpha virt. eigenvalues --    1.41314   1.41590   1.41956   1.42095   1.42759
 Alpha virt. eigenvalues --    1.43333   1.43549   1.44542   1.44673   1.44846
 Alpha virt. eigenvalues --    1.46078   1.46151   1.46631   1.46940   1.47662
 Alpha virt. eigenvalues --    1.48561   1.49150   1.49487   1.50163   1.50439
 Alpha virt. eigenvalues --    1.50963   1.51801   1.53226   1.53453   1.53614
 Alpha virt. eigenvalues --    1.54307   1.55093   1.55483   1.55686   1.56268
 Alpha virt. eigenvalues --    1.56578   1.56916   1.57632   1.58150   1.58797
 Alpha virt. eigenvalues --    1.59253   1.59453   1.59838   1.61381   1.61712
 Alpha virt. eigenvalues --    1.62214   1.62704   1.63491   1.63575   1.63878
 Alpha virt. eigenvalues --    1.65143   1.65726   1.66494   1.67003   1.67386
 Alpha virt. eigenvalues --    1.67732   1.67943   1.68097   1.68985   1.69483
 Alpha virt. eigenvalues --    1.70218   1.71124   1.71565   1.72073   1.72723
 Alpha virt. eigenvalues --    1.72976   1.73154   1.73751   1.74016   1.74218
 Alpha virt. eigenvalues --    1.74798   1.75464   1.75955   1.76423   1.76925
 Alpha virt. eigenvalues --    1.77292   1.77438   1.78820   1.79354   1.79914
 Alpha virt. eigenvalues --    1.80277   1.80930   1.81795   1.82385   1.83112
 Alpha virt. eigenvalues --    1.83537   1.83932   1.84225   1.84418   1.84838
 Alpha virt. eigenvalues --    1.85179   1.85936   1.86327   1.86817   1.87252
 Alpha virt. eigenvalues --    1.87430   1.88377   1.88956   1.89252   1.89662
 Alpha virt. eigenvalues --    1.89818   1.89976   1.90415   1.90820   1.91495
 Alpha virt. eigenvalues --    1.91747   1.92058   1.92493   1.92791   1.92869
 Alpha virt. eigenvalues --    1.93429   1.93987   1.94336   1.95429   1.95572
 Alpha virt. eigenvalues --    1.95808   1.96822   1.97303   1.97731   1.98191
 Alpha virt. eigenvalues --    1.99839   2.00270   2.00539   2.00629   2.01271
 Alpha virt. eigenvalues --    2.02209   2.02670   2.02821   2.03235   2.03736
 Alpha virt. eigenvalues --    2.04523   2.05079   2.05471   2.06077   2.06988
 Alpha virt. eigenvalues --    2.08418   2.09161   2.09555   2.10378   2.11419
 Alpha virt. eigenvalues --    2.11782   2.13460   2.13828   2.14091   2.14256
 Alpha virt. eigenvalues --    2.15084   2.16050   2.16555   2.16990   2.17854
 Alpha virt. eigenvalues --    2.18785   2.19392   2.20411   2.20981   2.21291
 Alpha virt. eigenvalues --    2.22270   2.22653   2.23430   2.23517   2.24060
 Alpha virt. eigenvalues --    2.24470   2.24909   2.25098   2.25728   2.27077
 Alpha virt. eigenvalues --    2.27517   2.28086   2.29665   2.29946   2.30440
 Alpha virt. eigenvalues --    2.31476   2.32387   2.32679   2.33107   2.36182
 Alpha virt. eigenvalues --    2.36417   2.37801   2.39545   2.40830   2.41433
 Alpha virt. eigenvalues --    2.44310   2.44833   2.47067   2.49296   2.51406
 Alpha virt. eigenvalues --    2.54354   2.55620   2.55912   2.57050   2.57189
 Alpha virt. eigenvalues --    2.57996   2.58780   2.60383   2.60796   2.60918
 Alpha virt. eigenvalues --    2.61215   2.61412   2.62221   2.62901   2.63031
 Alpha virt. eigenvalues --    2.63601   2.64068   2.64076   2.64613   2.65097
 Alpha virt. eigenvalues --    2.65450   2.65674   2.66005   2.66570   2.67110
 Alpha virt. eigenvalues --    2.67617   2.67750   2.68174   2.69268   2.69729
 Alpha virt. eigenvalues --    2.70066   2.70894   2.71703   2.72540   2.72746
 Alpha virt. eigenvalues --    2.73890   2.74796   2.75687   2.76101   2.77806
 Alpha virt. eigenvalues --    2.77957   2.78457   2.78939   2.79077   2.79419
 Alpha virt. eigenvalues --    2.79973   2.80825   2.81239   2.82000   2.82178
 Alpha virt. eigenvalues --    2.82508   2.82939   2.83515   2.84448   2.84855
 Alpha virt. eigenvalues --    2.85320   2.85477   2.86295   2.87203   2.87943
 Alpha virt. eigenvalues --    2.88263   2.90160   2.92845   2.93235   2.93720
 Alpha virt. eigenvalues --    2.94178   2.94455   2.94540   2.94869   2.95442
 Alpha virt. eigenvalues --    2.96267   2.96513   2.96721   2.98334   2.98474
 Alpha virt. eigenvalues --    2.98821   2.99064   2.99269   2.99350   3.00574
 Alpha virt. eigenvalues --    3.00841   3.01164   3.01668   3.02326   3.02777
 Alpha virt. eigenvalues --    3.02814   3.02909   3.03109   3.03326   3.03360
 Alpha virt. eigenvalues --    3.03477   3.03578   3.03745   3.03779   3.03904
 Alpha virt. eigenvalues --    3.03973   3.04101   3.04207   3.04944   3.05300
 Alpha virt. eigenvalues --    3.06277   3.06432   3.06601   3.06750   3.08466
 Alpha virt. eigenvalues --    3.12349   3.13538   3.14858   3.15540   3.15594
 Alpha virt. eigenvalues --    3.15770   3.15790   3.15839   3.16265   3.16658
 Alpha virt. eigenvalues --    3.18657   3.20078   3.21759   3.22624   3.23431
 Alpha virt. eigenvalues --    3.24330   3.33905   3.34902   3.36094   3.37382
 Alpha virt. eigenvalues --    3.37652   3.38306   3.38420   3.39129   3.39575
 Alpha virt. eigenvalues --    3.40047   3.40158   3.40854   3.44002   3.47988
 Alpha virt. eigenvalues --    3.50511   3.51846   3.52264   3.52636   3.52724
 Alpha virt. eigenvalues --    3.52977   3.53398   3.53650   3.55204   3.58177
 Alpha virt. eigenvalues --    3.62361   3.66871   3.67358   3.68051   3.68788
 Alpha virt. eigenvalues --    3.81592   3.81836   3.82397   3.82735   3.83884
 Alpha virt. eigenvalues --    3.85159
          Condensed to atoms (all electrons):
 Mulliken charges:
               1
     1  C   -0.018791
     2  C    0.016299
     3  C    0.027212
     4  C    0.037714
     5  C   -0.007560
     6  C    0.072267
     7  C   -0.249964
     8  C    0.264702
     9  C    0.290555
    10  H    0.004016
    11  H    0.011646
    12  H    0.028171
    13  H    0.020351
    14  H    0.005826
    15  O   -0.303399
    16  O   -0.295923
    17  O   -0.266789
    18  O   -0.274195
    19  C    0.172802
    20  C    0.162001
    21  H    0.052205
    22  H    0.039632
    23  H    0.044869
    24  H    0.050572
    25  H    0.061672
    26  H    0.058215
    27  O   -0.436014
    28  O   -0.445318
    29  O   -0.439143
    30  S    0.882143
    31  S    0.882524
    32  S    0.870018
    33  O   -0.428744
    34  O   -0.403190
    35  O   -0.431937
    36  O   -0.402734
    37  O   -0.432954
    38  O   -0.402508
    39  C    0.417867
    40  C    0.419174
    41  C    0.429718
    42  F   -0.129409
    43  F   -0.114221
    44  F   -0.123449
    45  F   -0.111194
    46  F   -0.126895
    47  F   -0.125476
    48  F   -0.116089
    49  F   -0.120511
    50  F   -0.126099
    51  C    0.041746
    52  H    0.051109
    53  C   -0.234797
    54  C   -0.123643
    55  C   -0.140718
    56  C    0.048777
    57  C    0.053046
    58  C    0.077519
    59  H    0.081109
    60  H    0.081682
    61  H    0.073590
    62  N    0.059895
    63  N    0.076356
    64  N   -0.033949
    65  N   -0.013706
    66  Sc   0.316559
    67  C    0.281985
    68  H    0.039487
    69  H    0.031187
    70  C    0.149250
    71  H    0.093853
 Sum of Mulliken charges =  -0.00000
 Mulliken charges with hydrogens summed into heavy atoms:
               1
     1  C   -0.018791
     2  C    0.020316
     3  C    0.038858
     4  C    0.065885
     5  C    0.012792
     6  C    0.078093
     7  C   -0.249964
     8  C    0.264702
     9  C    0.290555
    15  O   -0.303399
    16  O   -0.295923
    17  O   -0.266789
    18  O   -0.274195
    19  C    0.309507
    20  C    0.332460
    27  O   -0.436014
    28  O   -0.445318
    29  O   -0.439143
    30  S    0.882143
    31  S    0.882524
    32  S    0.870018
    33  O   -0.428744
    34  O   -0.403190
    35  O   -0.431937
    36  O   -0.402734
    37  O   -0.432954
    38  O   -0.402508
    39  C    0.417867
    40  C    0.419174
    41  C    0.429718
    42  F   -0.129409
    43  F   -0.114221
    44  F   -0.123449
    45  F   -0.111194
    46  F   -0.126895
    47  F   -0.125476
    48  F   -0.116089
    49  F   -0.120511
    50  F   -0.126099
    51  C    0.092855
    53  C   -0.234797
    54  C   -0.123643
    55  C   -0.140718
    56  C    0.129885
    57  C    0.134729
    58  C    0.151109
    62  N    0.059895
    63  N    0.076356
    64  N   -0.033949
    65  N   -0.013706
    66  Sc   0.316559
    67  C    0.352658
    70  C    0.243103
 APT charges:
               1
     1  C   -0.535035
     2  C    0.084880
     3  C   -0.181379
     4  C    0.141086
     5  C   -0.179236
     6  C    0.156878
     7  C   -1.662533
     8  C    2.019693
     9  C    2.103624
    10  H    0.067518
    11  H    0.067988
    12  H    0.061287
    13  H    0.062835
    14  H    0.084979
    15  O   -1.508859
    16  O   -1.506007
    17  O   -1.151690
    18  O   -1.174662
    19  C    0.592085
    20  C    0.630889
    21  H    0.018270
    22  H    0.027394
    23  H    0.003247
    24  H    0.030614
    25  H   -0.012381
    26  H   -0.009994
    27  O   -1.233688
    28  O   -1.192908
    29  O   -1.286573
    30  S    2.583434
    31  S    2.558801
    32  S    2.381969
    33  O   -1.216921
    34  O   -1.021233
    35  O   -1.212436
    36  O   -0.991997
    37  O   -1.075288
    38  O   -0.977062
    39  C    1.859166
    40  C    1.868066
    41  C    1.894556
    42  F   -0.666144
    43  F   -0.644763
    44  F   -0.665035
    45  F   -0.642361
    46  F   -0.651391
    47  F   -0.685945
    48  F   -0.657377
    49  F   -0.652635
    50  F   -0.701054
    51  C    1.976190
    52  H   -0.038740
    53  C   -1.154786
    54  C    0.492508
    55  C    0.515257
    56  C    0.116322
    57  C    0.160765
    58  C   -0.052696
    59  H    0.136789
    60  H    0.110087
    61  H    0.135922
    62  N   -0.555579
    63  N   -0.567906
    64  N    0.688422
    65  N   -0.374652
    66  Sc   3.066259
    67  C   -0.048692
    68  H    0.077152
    69  H    0.065206
    70  C   -0.113612
    71  H    0.163114
 Sum of APT charges =  -0.00000
 APT charges with hydrogens summed into heavy atoms:
               1
     1  C   -0.535035
     2  C    0.152398
     3  C   -0.113391
     4  C    0.202373
     5  C   -0.116402
     6  C    0.241857
     7  C   -1.662533
     8  C    2.019693
     9  C    2.103624
    15  O   -1.508859
    16  O   -1.506007
    17  O   -1.151690
    18  O   -1.174662
    19  C    0.640996
    20  C    0.639128
    27  O   -1.233688
    28  O   -1.192908
[...]
 00102,-0.00001289,0.00013764,-0.00005229,0.00017055,-0.00027927,-0.000
 09693,0.00009272,-0.00008106,-0.00013377,0.00001226,0.00071684,-0.0001
 3026,-0.00023349,-0.00244267,0.00231921,-0.00141509,-0.00000545,-0.000
 11018,0.00021979,-0.00032992,-0.00022439,-0.00015779,-0.00000489,0.000
 00359,-0.00000986,0.00002424,0.00000357,-0.00004364,0.00002440,0.00000
 107,-0.00001544,0.00003273,0.00000976,-0.00000085,-0.00002284,0.000053
 82,-0.00005001,0.00002908,-0.00003012,0.00010524,0.00000298,-0.0000012
 0,0.00000580,0.00002315,0.00000390,0.00000224,-0.00001549,0.00000478,0
 .00000975,-0.00000884,-0.00001772,-0.00002298,-0.00000890,0.00000440,-
 0.00000251,-0.00005572,0.00001942,0.00002412,0.00001452,0.00001265,0.0
 0000732,-0.00000102,0.00000289,0.00000465,0.00000588,-0.00000083,0.000
 00323,0.00000270,-0.00000080,0.00000172,0.00004671,-0.00001239,-0.0000
 3144,0.00002484,-0.00001282,-0.00000191,-0.00000950,0.00002054,0.00000
 040,-0.00000454,0.00000354,-0.00000227,0.00000564,-0.00001432,-0.00001
 342,0.00000428,-0.00000557,0.00000014,0.00000306,-0.00000711,0.0000049
 6,0.00000522,-0.00000901,-0.00000643,0.00000185,-0.00000124,0.00000162
 ,0.00000078,-0.00000064,0.00000024,0.00000229,-0.00000097,-0.00000006,
 -0.00000727,0.00000657,0.00000592,0.00000317,0.00000433,0.00000757,0.0
 0000035,0.00000580,0.00000169,-0.00000660,-0.00258257,-0.00373889,-0.0
 0060886,0.00009441,0.00025437,0.00010067,0.00037116,0.00015291,-0.0003
 1121,-0.00041726,-0.00006382,0.00001670,-0.00019781,0.00073158,-0.0000
 3235,0.00000240,-0.00000196,-0.00000236,0.00004020,0.00000870,0.000013
 73,-0.00001399,0.00001455,0.00000111,0.00000123,0.00000048,-0.00000019
 ,0.00000111,0.00000129,0.00000606,-0.00000020,-0.00000362,0.00015338,0
 .00020182,0.00001611,-0.00020086,0.00001495,-0.00041760,0.00010487,0.0
 0004348,-0.00003384,-0.00000443,0.00000916,-0.00003336,-0.00005244,-0.
 00002080,-0.00005961,0.05879930,-0.07737582,-0.30016434,0.00404769,-0.
 00611298,-0.01172381,-0.06108128,0.08373550,0.31626211,-0.00007950,-0.
 00079480,-0.00216824,0.00041754,0.00077064,-0.00041652,0.00104601,0.00
 009632,0.00146057,-0.00031099,0.00093343,-0.00042321,-0.00036767,-0.00
 101875,-0.00068289,0.00053642,-0.00025705,0.00147570,-0.00071917,-0.00
 028542,-0.00023036,0.00013230,0.00001254,-0.00053888,0.00018762,-0.000
 30009,0.00050395,-0.00095018,-0.00051831,0.00072361,0.00005853,-0.0000
 0842,-0.00004428,-0.00008428,0.00002636,0.00000824,0.00001512,-0.00001
 296,-0.00001609,-0.00004223,0.00003147,-0.00002631,-0.00026836,0.00015
 433,-0.00000893,-0.00021412,0.00011280,0.00010249,0.00006923,-0.000031
 67,0.00017496,0.00010300,0.00007054,-0.00025114,0.00002384,-0.00000387
 ,-0.00006548,0.00000509,-0.00001739,0.00006811,0.00000038,-0.00000064,
 0.00000700,-0.00000355,0.00000041,0.00000813,-0.00000454,0.00000028,0.
 00000866,-0.00000191,0.00000454,-0.00001094,-0.00000454,0.00000102,-0.
 00001147,0.00000240,0.00000172,-0.00001156,-0.00003789,0.00003075,-0.0
 0000637,0.00001811,0.00002768,0.00003762,-0.00004737,-0.00002406,0.000
 01053,0.00006212,0.00003010,-0.00001813,0.00005785,-0.00002064,0.00001
 975,-0.00007851,0.00000279,-0.00012591,-0.00003165,-0.00001543,0.00001
 027,-0.00002718,-0.00000912,0.00000285,-0.00002590,0.00001409,-0.00000
 437,-0.00001384,0.00000549,-0.00001234,0.00002720,0.00002929,0.0000438
 4,0.00009434,-0.00001939,0.00001690,0.00002027,0.00000333,-0.00002295,
 0.00001422,-0.00001332,-0.00000983,0.00002348,0.00002714,-0.00001411,-
 0.00000245,-0.00000808,0.00000456,-0.00000304,-0.00000495,0.00001164,-
 0.00000943,0.00000802,0.00001292,-0.00000322,0.00000336,0.00000258,-0.
 00000305,0.00000376,0.00000156,-0.00001296,0.00000730,0.00000323,-0.00
 001204,-0.00000638,0.00000525,-0.00000229,-0.00000629,0.00000747,-0.00
 000908,-0.00001504,0.00000132,0.00091948,-0.00010666,0.00056131,0.0005
 2538,0.00093417,-0.00047726,0.00817765,-0.01336678,0.00774961,0.000363
 58,-0.00253895,-0.00166934,-0.00218297,-0.00495729,-0.00152301,-0.1192
 4880,-0.09852102,-0.07157582,-0.00912057,-0.00318553,0.00234483,-0.007
 05569,-0.00688655,-0.02398161,0.00480530,0.00334643,0.00120578,-0.0001
 7227,-0.00043349,0.00043640,0.00537787,0.00015141,-0.00530154,0.000081
 20,0.00006646,0.00027844,0.00014148,0.00037273,0.00055245,-0.09824276,
 0.02499092,-0.04881109,0.01233550,0.01677208,-0.01402826,0.00015775,-0
 .00011382,-0.00006917,-0.00041098,0.00034478,0.00042023,-0.00005326,-0
 .00000788,-0.00000491,0.00001851,0.00003061,0.00003220,0.32042561,0.00
 109233,0.00205489,0.00425666,-0.00066463,-0.00107443,-0.00046652,0.000
 69701,-0.00041953,0.00210974,0.00007803,0.00137435,-0.00056034,-0.0003
 6212,-0.00080028,-0.00115613,-0.00103246,0.00046400,0.00054841,-0.0023
 6088,-0.00060908,0.00026509,0.00082169,0.00003069,-0.00197838,0.001009
 73,-0.00101957,0.00171874,-0.00017356,0.00002689,-0.00018169,0.0001008
 2,0.00003868,-0.00003300,-0.00008320,0.00005082,0.00004042,0.00003410,
 -0.00003125,0.00003981,-0.00013951,0.00007105,-0.00002092,-0.00110682,
 0.00061015,-0.00001771,-0.00102972,0.00048183,0.00035414,-0.00014106,-
 0.00055008,0.00092729,0.00004098,0.00021149,-0.00074569,0.00013623,0.0
 0004476,-0.00045592,0.00014212,-0.00019075,0.00031084,0.00001049,-0.00
 000459,0.00004011,-0.00000031,0.00000713,0.00004745,-0.00003273,-0.000
 00639,0.00007103,0.00002899,0.00000198,0.00000611,-0.00003801,0.000027
 62,-0.00003703,-0.00003105,0.00002803,-0.00004623,-0.00014466,0.000191
 98,-0.00006408,-0.00002200,0.00017667,0.00011081,-0.00022167,-0.000093
 46,0.00003804,0.00030038,0.00011713,-0.00007205,0.00018825,-0.00016772
 ,0.00011790,0.00009757,-0.00037780,-0.00026248,-0.00016085,-0.00005820
 ,0.00004213,-0.00012939,-0.00003562,0.00001104,-0.00010655,0.00012336,
 -0.00005316,-0.00004755,0.00004388,-0.00005783,-0.00006117,0.00030302,
 0.00015428,-0.00005281,0.00011152,0.00004981,-0.00005828,-0.00024949,0
 .00004573,0.00001261,-0.00011873,-0.00001668,0.00014227,0.00011487,-0.
 00006803,0.00006311,0.00008439,-0.00000915,-0.00000335,0.00008384,-0.0
 0004856,-0.00001711,0.00009029,0.00003599,-0.00000895,0.00002945,0.000
 00279,0.00001542,0.00005771,-0.00000736,-0.00003733,0.00003725,0.00001
 118,-0.00007466,-0.00002435,0.00002808,-0.00002059,-0.00002758,0.00003
 003,-0.00004860,-0.00006733,0.00000605,0.00790348,-0.00246971,-0.00717
 485,-0.00042824,-0.00014576,-0.00017931,-0.01837067,-0.05892115,-0.000
 51205,0.00013893,0.00515067,-0.00374045,0.00130146,-0.00298147,0.00684
 826,-0.06344766,-0.27445382,-0.05699688,-0.01783261,-0.06866021,-0.016
 06040,-0.02774987,0.05512953,-0.06311172,-0.01055536,-0.01341121,-0.01
 473055,-0.00000855,-0.00112123,0.00027043,-0.00023789,0.00049596,0.001
 86233,0.00027092,-0.00328912,0.00146395,-0.00106468,-0.00039356,-0.002
 04590,-0.00180702,-0.28819557,0.04789623,0.04753069,0.01143410,0.08567
 141,0.00080881,-0.00059978,-0.00013792,-0.00036391,0.00189308,0.000897
 90,0.00000576,0.00006354,0.00001785,0.00014731,0.00033432,0.00001852,0
 .07960774,0.69439623,-0.00039384,0.00033048,0.00065856,0.00046685,-0.0
 0032595,-0.00084552,-0.00045828,-0.00034674,-0.00040931,0.00009814,-0.
 00007581,0.00002808,0.00028080,0.00021500,0.00019543,-0.00036463,0.000
 18651,-0.00061302,0.00030985,0.00004558,-0.00010989,-0.00002548,0.0000
 0067,0.00034974,-0.00007455,0.00008399,-0.00000303,0.00044904,0.000153
 42,-0.00010455,0.00000289,0.00001624,0.00000975,0.00001848,-0.00000966
 ,0.00004180,-0.00001209,-0.00001505,0.00004019,0.00003458,-0.00003703,
 0.00000087,0.00007008,-0.00004386,-0.00004944,0.00003922,-0.00003243,-
 0.00004494,-0.00011998,0.00001198,-0.00013118,0.00002144,0.00002724,-0
 .00007041,0.00000610,0.00000504,-0.00000543,-0.00001061,-0.00001532,0.
 00003126,0.00000344,0.00000595,-0.00000333,0.00000647,0.00000213,-0.00
 000713,-0.00000408,-0.00000256,-0.00000350,-0.00000870,-0.00000719,-0.
 00002114,0.00000376,0.00000799,-0.00001071,-0.00001326,0.00000259,0.00
 000348,0.00000054,-0.00000101,-0.00001879,-0.00008481,-0.00002944,-0.0
 0003548,0.00000749,-0.00000090,-0.00001230,-0.00000149,0.00000306,0.00
 002070,-0.00000450,-0.00000232,0.00002607,0.00023549,-0.00002647,0.000
 09431,-0.00000256,-0.00000665,-0.00000872,-0.00000066,-0.00000035,-0.0
 0000473,-0.00000039,0.00000260,-0.00001059,-0.00000109,0.00000068,-0.0
 0001244,-0.00010758,-0.00001169,-0.00005789,-0.00016593,0.00002161,-0.
 00001942,0.00009336,-0.00003604,0.00003022,0.00000595,-0.00000012,0.00
 002128,0.00000061,-0.00000103,0.00001134,-0.00005758,0.00000330,-0.000
 01069,-0.00002109,0.00002306,-0.00003662,-0.00001979,0.00001380,0.0000
 0984,-0.00000486,0.00000014,-0.00001295,0.00000054,0.00000114,-0.00000
 516,-0.00000088,-0.00000088,-0.00000342,0.00000171,0.00000032,-0.00000
 305,-0.00000256,0.00000063,-0.00000754,-0.00000073,-0.00000039,-0.0000
 0187,-0.00009887,0.00007730,0.00015679,0.00025350,0.00002959,0.0000259
 7,0.00625595,-0.00732876,0.01569076,-0.00297323,-0.00428806,-0.0014635
 7,-0.00166519,-0.00395267,0.00029682,-0.08151671,-0.12132424,-0.175261
 04,0.00531130,0.00814270,-0.00160520,-0.01769893,-0.02475484,-0.017861
 80,0.00492550,0.01049635,0.00933578,0.00029141,-0.00054356,0.00028908,
 -0.00522974,0.00238823,-0.00163058,0.00063547,0.00007024,0.00051876,0.
 00045598,0.00068599,0.00053479,-0.04085973,0.09954565,-0.16874733,-0.0
 2216677,0.03307341,-0.02750870,0.00000788,0.00006883,0.00008273,-0.000
 08414,-0.00018145,-0.00003308,-0.00000958,0.00000566,-0.00000339,-0.00
 002126,-0.00004987,0.00003757,0.29106327,-0.00381303,0.65717426,0.0000
 0079,0.00005556,0.00001035,0.00014444,-0.00009390,0.00010330,-0.000075
 76,0.00003015,-0.00006777,0.00001761,-0.00005244,0.00003058,0.00003321
 ,0.00008848,0.00004331,0.00002727,-0.00001405,-0.00010325,-0.00010485,
 -0.00007452,-0.00002738,0.00001260,-0.00002736,-0.00005015,-0.00002380
 ,-0.00012765,0.00019047,0.00001925,0.00005343,-0.00004592,-0.00000209,
 -0.00000262,0.00000654,0.00000286,0.00000020,-0.00000596,-0.00000207,0
 .00000124,-0.00000219,-0.00000573,0.00000471,0.00000312,-0.00001623,0.
 00004099,-0.00002750,-0.00002888,0.00003860,0.00000485,0.00000198,0.00
 000064,0.00000484,0.00006595,0.00006366,-0.00010155,-0.00000089,-0.000
 00270,0.00000197,0.00000573,-0.00002991,0.00000819,-0.00000088,-0.0000
 0060,0.00000007,-0.00000069,-0.00000128,0.00000166,0.00000061,0.000000
 21,0.00000071,-0.00000412,-0.00001494,-0.00001624,0.00000384,0.0000156
 6,-0.00000571,-0.00002582,0.00000620,-0.00000280,0.00003879,0.00000588
 ,-0.00000597,0.00003778,0.00001454,-0.00001532,0.00000947,0.00001381,-
 0.00000570,-0.00001476,-0.00001864,0.00000676,-0.00006482,-0.00000825,
 0.00000983,-0.00005036,-0.00001619,0.00009678,0.00000847,0.00001309,-0
 .00000308,0.00000600,0.00000477,-0.00000132,0.00001878,0.00001382,-0.0
 0001055,0.00001551,0.00000062,0.00000054,0.00003995,0.00002095,-0.0000
 4997,-0.00000168,0.00001127,-0.00003162,-0.00004765,-0.00000039,0.0000
 6317,-0.00002570,0.00000179,0.00001542,0.00000204,-0.00001068,0.000003
 80,0.00002458,0.00000478,-0.00001733,0.00000333,0.00000773,-0.00002443
 ,0.00001838,-0.00001345,-0.00002661,0.00000461,-0.00000149,-0.00000526
 ,0.00000970,0.00000499,-0.00000538,0.00001560,-0.00000567,-0.00000372,
 -0.00000128,0.00000311,-0.00000042,-0.00000105,0.00000288,-0.00000302,
 0.00000139,0.00000588,-0.00000066,0.00030465,0.00003645,-0.00007951,-0
 .00011849,-0.00004428,0.00004508,-0.00220812,-0.00049932,0.00062437,-0
 .00065480,0.00050094,0.00018223,0.00033731,-0.00075836,0.00003430,0.00
 281178,0.00162113,-0.00812903,-0.00049382,-0.00051313,0.00052045,0.004
 79751,-0.00205789,-0.00315785,-0.00264397,0.00074383,0.00189984,-0.001
 06752,0.00016672,0.00058423,-0.00041217,0.00024409,-0.00000303,0.00015
 542,-0.00015075,-0.00001561,-0.00016496,-0.00065113,-0.00040994,0.0013
 9396,0.00099739,-0.00133829,0.00708744,-0.00088185,-0.00209327,-0.0000
 2910,-0.00006015,0.00001530,-0.00015393,0.00009305,-0.00007255,0.00002
 916,0.00001416,-0.00000078,0.00000759,-0.00000878,0.00001145,-0.116386
 18,0.00755080,-0.13707093,0.10731686,0.00001083,-0.00003802,-0.0000645
 4,-0.00003834,0.00004574,-0.00001605,0.00001639,0.00001875,-0.00001690
 ,-0.00001929,-0.00002667,-0.00000873,-0.00001542,-0.00002002,-0.000005
 13,0.00000158,-0.00002217,0.00001782,0.00015882,0.00010074,-0.00002142
 ,-0.00008026,-0.00000532,0.00018320,-0.00011356,0.00008030,-0.00006150
 ,-0.00000668,0.00001791,0.00001743,-0.00000752,-0.00000195,-0.00000683
 ,0.00000199,-0.00000057,-0.00000122,-0.00000127,0.00000059,-0.00000442
 ,0.00000806,0.00000011,0.00000494,0.00011600,-0.00006507,-0.00001476,0
 .00010267,-0.00005064,-0.00003441,-0.00000735,0.00003288,-0.00008005,0
 .00005647,-0.00001467,0.00002802,-0.00000961,-0.00000377,0.00003451,-0
 .00003344,0.00003480,-0.00004060,-0.00000052,0.00000076,-0.00000360,0.
 00000130,0.00000019,-0.00000454,0.00000264,0.00000051,-0.00000512,-0.0
 0001059,0.00000423,-0.00001058,0.00000711,-0.00000405,0.00000410,0.000
 00641,-0.00000447,0.00000173,0.00000649,-0.00002459,0.00000889,-0.0000
 0332,-0.00002198,-0.00000826,0.00001879,0.00000468,-0.00000284,-0.0000
 2518,-0.00000475,0.00000584,-0.00000277,0.00002487,-0.00001682,-0.0000
 0750,0.00004926,0.00000761,0.00001301,0.00000154,-0.00000371,0.0000111
 4,0.00000173,-0.00000080,0.00000593,-0.00001873,0.00000931,0.00000086,
 -0.00000662,0.00000657,0.00000120,-0.00003400,-0.00000962,0.00001121,-
 0.00001585,0.00000104,0.00002176,0.00003613,-0.00003070,0.00000936,0.0
 0001738,-0.00000541,-0.00001469,-0.00000690,0.00000677,-0.00001533,-0.
 00001374,0.00000798,-0.00000026,-0.00001543,0.00001637,-0.00000384,-0.
 00000770,0.00000513,-0.00000057,-0.00000369,0.00000229,-0.00000638,-0.
 00001090,0.00000371,-0.00000133,-0.00000321,0.00000016,0.00000814,0.00
 000080,-0.00000321,0.00000213,0.00000165,-0.00000263,0.00000431,0.0000
 0439,-0.00000060,-0.00046291,-0.00003044,0.00031940,0.00002951,0.00006
 818,-0.00001467,0.00097048,0.00002145,0.00047538,-0.00012492,0.0000773
 6,-0.00012023,-0.00002738,-0.00313145,0.00126897,-0.01127975,0.0072492
 1,-0.02002727,-0.00020142,-0.00052444,-0.00042096,-0.00237365,-0.00395
 953,-0.00145532,0.00074137,0.00093680,0.00015701,0.00019181,0.00021923
 ,-0.00002500,-0.00036111,0.00042813,-0.00089859,0.00000004,0.00013754,
 -0.00004946,-0.00074432,-0.00022115,-0.00069078,0.01650994,-0.00128822
 ,0.03002702,-0.00118108,-0.00504765,0.00104737,-0.00007228,0.00007168,
 0.00001251,0.00008770,-0.00004871,-0.00004052,0.00000133,0.00000196,-0
 .00000666,-0.00001031,-0.00003527,-0.00000564,0.00448323,-0.05541836,0
 .01151621,-0.00635587,0.06045922,0.00002251,0.00005828,0.00004187,-0.0
 0007399,0.00002943,-0.00015080,0.00005930,-0.00004058,0.00009356,0.000
 01820,0.00006234,-0.00002992,-0.00002840,-0.00006309,-0.00004516,-0.00
 003153,0.00003925,0.00005815,-0.00021679,-0.00008756,-0.00002961,0.000
 08072,0.00001195,-0.00018257,0.00009709,-0.00009642,0.00018079,0.00000
 346,-0.00003310,0.00001020,0.00000189,0.00000655,-0.00000421,-0.000003
 18,0.00000089,0.00000776,0.00000235,-0.00000250,0.00000556,-0.00000241
 ,-0.00000277,-0.00000240,-0.00010387,0.00005558,-0.00001121,-0.0000984
 7,0.00004138,0.00003135,-0.00000189,-0.00004037,0.00007677,0.00000740,
 0.00002184,-0.00010322,0.00001206,0.00000510,-0.00003816,0.00000979,-0
 .00002131,0.00005620,0.00000141,0.00000040,0.00000361,0.00000021,0.000
 00056,0.00000353,-0.00000347,-0.00000080,0.00000523,0.00000094,-0.0000
 0663,-0.00000655,-0.00000257,0.00000430,-0.00000937,-0.00000525,0.0000
 0298,-0.00000270,-0.00002331,0.00001896,-0.00001246,-0.00002688,0.0000
 0775,0.00001070,-0.00002336,-0.00001292,0.00000051,0.00003277,0.000017
 29,-0.00000130,0.00003143,-0.00001669,0.00002340,0.00005249,-0.0000282
 2,-0.00004991,-0.00001903,-0.00001071,0.00000190,-0.00001432,-0.000004
 85,-0.00000035,-0.00001490,0.00001136,-0.00000765,-0.00000823,0.000004
 66,-0.00001254,-0.00002960,0.00001659,0.00002081,-0.00001716,0.0000062
 7,0.00001261,0.00003579,-0.00002518,-0.00000783,0.00000748,-0.00001167
 ,0.00000334,0.00001305,0.00001449,-0.00000335,-0.00001704,0.00000411,0
 .00000419,-0.00000679,0.00000851,-0.00000489,-0.00001225,0.00001431,0.
 00001282,-0.00000336,0.00000289,-0.00000361,-0.00000012,0.00000511,-0.
 00000185,-0.00000673,0.00000443,0.00000048,-0.00000596,-0.00000366,0.0
 0000151,-0.00000225,-0.00000340,0.00000110,-0.00000511,-0.00000819,0.,
 0.00064600,-0.00005526,-0.00033157,0.00012343,0.00013809,-0.00003621,0
 .00010178,-0.00211382,-0.00057368,0.00022753,0.00002301,-0.00036995,-0
 .00068494,-0.00060966,0.00030322,-0.00460577,0.00297442,-0.00172127,0.
 00040404,-0.00070656,0.00023080,-0.00301579,-0.00073424,0.00157646,0.0
 0184625,0.00003453,-0.00047930,0.00057843,-0.00011713,-0.00035526,0.00
 017263,0.00018079,-0.00021521,-0.00002679,-0.00010802,0.00012471,-0.00
 025796,-0.00034901,-0.00048740,-0.00465441,0.00241637,-0.00744230,-0.0
 0227339,0.00143667,0.00391936,0.00009422,-0.00003782,0.00000298,-0.000
 05814,0.00012657,0.00010122,-0.00000649,-0.00000782,0.00000073,0.00000
 911,0.00001362,-0.00001790,-0.13681593,0.01849545,-0.28890741,0.148514
 07,-0.02095718,0.29473165\\-0.00000060,-0.00000287,0.00000052,0.000000
 39,-0.00000286,0.00000199,0.00000109,-0.00000391,0.00000326,-0.0000008
 2,-0.00000488,0.00000185,-0.00000169,-0.00000557,0.00000152,-0.0000019
 4,-0.00000382,-0.00000023,-0.00000119,0.00000040,-0.00000178,-0.000001
 69,-0.00000020,-0.00000269,-0.00000043,0.00000333,-0.00000114,0.000001
 48,-0.00000183,0.00000272,0.00000164,-0.00000456,0.00000369,-0.0000006
 7,-0.00000684,0.00000248,-0.00000290,-0.00000638,-0.00000003,-0.000002
 53,-0.00000408,-0.00000112,0.00000014,0.00000281,-0.00000180,-0.000002
 37,0.00000139,-0.00000127,-0.00000283,-0.00000048,-0.00000282,0.000000
 37,0.00000306,-0.00000160,-0.00000385,-0.00000246,-0.00000279,0.000001
 99,0.00000451,-0.00000092,-0.00000413,-0.00000346,-0.00000283,-0.00000
 251,-0.00000218,-0.00000179,-0.00000430,-0.00000096,-0.00000370,0.0000
 0165,0.00000480,-0.00000023,0.00000091,0.00000574,-0.00000171,0.000002
 14,0.00000503,0.00000016,0.00000147,0.00000460,0.00000007,0.00000058,0
 .00000108,-0.00000038,-0.00000063,0.00000539,-0.00000419,-0.00000117,0
 .00000423,-0.00000464,0.00000328,0.00000481,0.00000016,0.00000114,-0.0
 0000005,0.,-0.00000241,0.00000287,-0.00000289,-0.00000287,0.00000602,-
 0.00000509,0.00000129,0.00000572,-0.00000157,0.00000316,0.00000794,-0.
 00000062,0.00000085,0.00000058,0.00000079,0.00000016,-0.00000226,0.000
 00085,0.00000107,-0.00000032,0.00000257,0.00000320,0.00000564,0.000000
 66,-0.00000370,0.00000330,-0.00000610,0.00000293,-0.00000115,0.0000034
 6,0.00000351,0.00000143,0.00000284,0.00000236,-0.00000014,0.00000253,0
 .00000298,0.00000345,0.00000156,0.00000454,0.00000462,0.00000266,0.000
 00368,0.00000621,0.00000077,-0.00000398,0.00000273,-0.00000541,-0.0000
 0355,0.00000151,-0.00000487,-0.00000456,0.00000427,-0.00000680,0.00000
 112,0.00000013,-0.00000068,0.00000093,-0.00000015,0.00000092,-0.000000
 74,-0.00000252,0.00000167,-0.00000147,-0.00000324,-0.00000043,0.000001
 63,-0.00000042,0.00000261,0.00000289,-0.00000306,0.00000463,0.00000050
 ,-0.00000556,0.00000313,0.00000195,-0.00000573,0.00000475,0.00000384,-
 0.00000337,0.00000585,0.00000014,-0.00000738,0.00000383,0.00000266,-0.
 00000611,0.00000593,-0.00000279,-0.00000252,-0.00000132,0.00000049,0.0
 0000138,-0.00000126,0.00000030,-0.00000284,0.00000229,-0.00000006,-0.0
 0000517,0.00000225,-0.00000076,0.00000480,-0.00000171,-0.00000199,-0.0
 0000037,-0.00000134,-0.00000266,-0.00000120,-0.00000243,-0.00000130,0.
 00000062,-0.00000170,0.00000208,-0.00000237,0.00000401,0.00000258,-0.0
 0000113,0.00000288\\\@


 WE ARE REACHING THE STAGE WHERE THE PROBLEMS WE MUST SOLVE ARE 
 GOING TO BECOME INSOLUBLE WITHOUT COMPUTERS.
 I DO NOT FEAR COMPUTERS.  I FEAR THE LACK OF THEM.

                                   -- ISSAC ASIMOV
 Job cpu time:       2 days 12 hours 11 minutes 56.3 seconds.
 Elapsed time:       0 days  2 hours 30 minutes 46.7 seconds.
 File lengths (MBytes):  RWF=   6915 Int=      0 D2E=      0 Chk=     67 Scr=      1
 Normal termination of Gaussian 16 at Mon Jun  2 10:04:16 2025.
