 Entering Gaussian System, Link 0=/sysapps/ubuntu-applications/gaussian-new/avx/g16//g16
 Input=i3-maj.in
 Output=i3-maj.log
 Initial command:
 /sysapps/ubuntu-applications/gaussian-new/avx/g16/l1.exe "/scratch/selhajj1/7633633/Gau-3517091.inp" -scrdir="/scratch/selhajj1/7633633/"
 Entering Link 1 = /sysapps/ubuntu-applications/gaussian-new/avx/g16/l1.exe PID=   3517093.
  
 Copyright (c) 1988,1990,1992,1993,1995,1998,2003,2009,2016,
            Gaussian, Inc.  All Rights Reserved.
  
 This is part of the Gaussian(R) 16 program.  It is based on
 the Gaussian(R) 09 system (copyright 2009, Gaussian, Inc.),
 the Gaussian(R) 03 system (copyright 2003, Gaussian, Inc.),
 the Gaussian(R) 98 system (copyright 1998, Gaussian, Inc.),
 the Gaussian(R) 94 system (copyright 1995, Gaussian, Inc.),
 the Gaussian 92(TM) system (copyright 1992, Gaussian, Inc.),
 the Gaussian 90(TM) system (copyright 1990, Gaussian, Inc.),
 the Gaussian 88(TM) system (copyright 1988, Gaussian, Inc.),
 the Gaussian 86(TM) system (copyright 1986, Carnegie Mellon
 University), and the Gaussian 82(TM) system (copyright 1983,
 Carnegie Mellon University). Gaussian is a federally registered
 trademark of Gaussian, Inc.
  
 This software contains proprietary and confidential information,
 including trade secrets, belonging to Gaussian, Inc.
  
 This software is provided under written license and may be
 used, copied, transmitted, or stored only in accord with that
 written license.
  
 The following legend is applicable only to US Government
 contracts under FAR:
  
                    RESTRICTED RIGHTS LEGEND
  
 Use, reproduction and disclosure by the US Government is
 subject to restrictions as set forth in subparagraphs (a)
 and (c) of the Commercial Computer Software - Restricted
 Rights clause in FAR 52.227-19.
  
 Gaussian, Inc.
 340 Quinnipiac St., Bldg. 40, Wallingford CT 06492
  
  
 ---------------------------------------------------------------
 Warning -- This program may not be used in any manner that
 competes with the business of Gaussian, Inc. or will provide
 assistance to any competitor of Gaussian, Inc.  The licensee
 of this program is prohibited from giving any competitor of
 Gaussian, Inc. access to this program.  By using this program,
 the user acknowledges that Gaussian, Inc. is engaged in the
 business of creating and licensing software in the field of
 computational chemistry and represents and warrants to the
 licensee that it is not a competitor of Gaussian, Inc. and that
 it will not use this program in any manner prohibited above.
 ---------------------------------------------------------------
  

 Cite this work as:
 Gaussian 16, Revision A.03,
 M. J. Frisch, G. W. Trucks, H. B. Schlegel, G. E. Scuseria, 
 M. A. Robb, J. R. Cheeseman, G. Scalmani, V. Barone, 
 G. A. Petersson, H. Nakatsuji, X. Li, M. Caricato, A. V. Marenich, 
 J. Bloino, B. G. Janesko, R. Gomperts, B. Mennucci, H. P. Hratchian, 
 J. V. Ortiz, A. F. Izmaylov, J. L. Sonnenberg, D. Williams-Young, 
 F. Ding, F. Lipparini, F. Egidi, J. Goings, B. Peng, A. Petrone, 
 T. Henderson, D. Ranasinghe, V. G. Zakrzewski, J. Gao, N. Rega, 
 G. Zheng, W. Liang, M. Hada, M. Ehara, K. Toyota, R. Fukuda, 
 J. Hasegawa, M. Ishida, T. Nakajima, Y. Honda, O. Kitao, H. Nakai, 
 T. Vreven, K. Throssell, J. A. Montgomery, Jr., J. E. Peralta, 
 F. Ogliaro, M. J. Bearpark, J. J. Heyd, E. N. Brothers, K. N. Kudin, 
 V. N. Staroverov, T. A. Keith, R. Kobayashi, J. Normand, 
 K. Raghavachari, A. P. Rendell, J. C. Burant, S. S. Iyengar, 
 J. Tomasi, M. Cossi, J. M. Millam, M. Klene, C. Adamo, R. Cammi, 
 J. W. Ochterski, R. L. Martin, K. Morokuma, O. Farkas, 
 J. B. Foresman, and D. J. Fox, Gaussian, Inc., Wallingford CT, 2016.
 
 ******************************************
 Gaussian 16:  ES64L-G16RevA.03 25-Dec-2016
                 4-Mar-2025 
 ******************************************
 %chk=i3-maj.chk
 %mem=616Gb
 %nprocshared=24
 Will use up to   24 processors via shared memory.
 -------------------------------------------------------------------
 #P MN15/gen scf=(maxcyc=500) freq scrf=(smd,solvent=DiChloroEthane)
 -------------------------------------------------------------------
 1/10=4,30=1,38=1/1,3;
 2/12=2,17=6,18=5,40=1/2;
 3/5=7,11=2,25=1,30=1,70=32201,71=2,72=10,74=-73,140=1/1,2,3;
 4//1;
 5/5=2,7=500,38=5,53=10,98=1/2;
 8/6=4,10=90,11=11/1;
 11/6=1,8=1,9=11,15=111,16=1/1,2,10;
 10/6=1/2;
 6/7=2,8=2,9=2,10=2,28=1/1;
 7/8=1,10=1,25=1/1,2,3,16;
 1/10=4,30=1/3;
 99//99;
 Leave Link    1 at Tue Mar  4 15:05:10 2025, MaxMem= 82678120448 cpu:               2.8 elap:               0.3
 (Enter /sysapps/ubuntu-applications/gaussian-new/avx/g16/l101.exe)
 ---
 Opt
 ---
 Symbolic Z-matrix:
 Charge =  0 Multiplicity = 1
 C                     5.51623  -0.81376   0.1955 
 C                     5.71208  -1.51018   1.39771 
 C                     6.81738  -2.34903   1.5568 
 C                     7.73928  -2.50497   0.51977 
 C                     7.55399  -1.81469  -0.68037 
 C                     6.45136  -0.97486  -0.83808 
 C                     1.77398   0.49805   0.45465 
 C                     1.13332   0.50526  -0.93488 
 C                     0.82091   0.15395   1.59915 
 H                     5.00873  -1.40563   2.2274 
 H                     6.95576  -2.88416   2.49877 
 H                     8.6006   -3.16461   0.64638 
 H                     8.26908  -1.9305   -1.49773 
 H                     6.30753  -0.43199  -1.77694 
 O                    -0.39713   0.33418   1.50215 
 O                    -0.07655   0.36178  -1.11175 
 O                    -3.44067   0.4173    1.37181 
 O                    -3.06232   0.57481  -1.54334 
 O                    -0.16913  -2.00039   0.16324 
 S                    -0.88578  -2.79773  -0.87027 
 S                    -3.69901  -0.92607   1.98564 
 S                    -2.90429   2.04     -1.23689 
 O                    -2.00712  -1.91263  -1.33565 
 O                    -1.19618  -4.17393  -0.58632 
 O                    -2.5954   -1.77263   1.43404 
 O                    -3.98534  -0.99287   3.3911 
 O                    -1.93197   2.06951  -0.10785 
 O                    -2.67943   2.92401  -2.3502 
 C                    -4.55106   2.54454  -0.50332 
 C                    -5.18632  -1.51523   1.07431 
 C                     0.27931  -2.8324   -2.3148 
 F                    -4.35774   3.07395   0.68596 
 F                    -5.34598   1.49763  -0.40872 
 F                    -5.09999   3.43989  -1.30099 
 F                    -4.91875  -1.46117  -0.2195 
 F                    -6.21017  -0.73474   1.35332 
 F                    -5.45679  -2.75598   1.4237 
 F                     1.52044  -2.8963   -1.85542 
 F                     0.14273  -1.73995  -3.04192 
 F                     0.02675  -3.89172  -3.05388 
 C                     4.35392   0.13467  -0.02494 
 H                     4.31528   0.34712  -1.10241 
 C                     4.58823   1.54591   0.60718 
 C                     5.84666   2.11855   0.08847 
 C                     4.70418   1.43839   2.08398 
 C                     1.12429   2.99665   0.41947 
 C                     2.6798    3.98732  -1.14924 
 C                     1.3593    3.90717  -0.53922 
 H                     0.14687   2.90696   0.89831 
 H                     2.88521   4.68107  -1.96744 
 H                     0.57741   4.59548  -0.86401 
 N                     6.87336   2.48771  -0.29553 
 N                     4.73459   1.32061   3.23518 
 N                     3.46499   2.41296   0.28684 
 N                     3.66305   3.25868  -0.74856 
 C                     2.18302   2.01736   0.83247 
 H                     2.27482   2.01053   1.93422 
 Sc                   -1.79133  -0.2219    0.02218 
 C                     3.01977  -0.4311    0.47879 
 H                     2.7879   -1.3499   -0.08183 
 H                     3.17699  -0.74668   1.51673 
 C                     1.35132  -0.3221    2.90465 
 H                     1.52816  -1.40742   2.79893 
 H                     2.30479   0.14288   3.1887 
 H                     0.58744  -0.16885   3.67532 
 C                     1.99062   0.65827  -2.14172 
 H                     2.7521    1.43892  -2.02817 
 H                     2.51632  -0.29921  -2.3032 
 H                     1.35246   0.86287  -3.00881 
 
 ITRead=  0  0  0  0  0  0  0  0  0  0  0  0  0  0  0  0  0  0  0  0
 ITRead=  0  0  0  0  0  0  0  0  0  0  0  0  0  0  0  0  0  0  0  0
 ITRead=  0  0  0  0  0  0  0  0  0  0  0  0  0  0  0  0  0  0  0  0
 ITRead=  0  0  0  0  0  0  0  0  0
 MicOpt= -1 -1 -1 -1 -1 -1 -1 -1 -1 -1 -1 -1 -1 -1 -1 -1 -1 -1 -1 -1
 MicOpt= -1 -1 -1 -1 -1 -1 -1 -1 -1 -1 -1 -1 -1 -1 -1 -1 -1 -1 -1 -1
 MicOpt= -1 -1 -1 -1 -1 -1 -1 -1 -1 -1 -1 -1 -1 -1 -1 -1 -1 -1 -1 -1
 MicOpt= -1 -1 -1 -1 -1 -1 -1 -1 -1
 NAtoms=     69 NQM=       69 NQMF=       0 NMMI=      0 NMMIF=      0
                NMic=       0 NMicF=      0.
                    Isotopes and Nuclear Properties:
 (Nuclear quadrupole moments (NQMom) in fm**2, nuclear magnetic moments (NMagM)
  in nuclear magnetons)

  Atom         1           2           3           4           5           6           7           8           9          10
 IAtWgt=          12          12          12          12          12          12          12          12          12           1
 AtmWgt=  12.0000000  12.0000000  12.0000000  12.0000000  12.0000000  12.0000000  12.0000000  12.0000000  12.0000000   1.0078250
 NucSpn=           0           0           0           0           0           0           0           0           0           1
 AtZEff=  -0.0000000  -0.0000000  -0.0000000  -0.0000000  -0.0000000  -0.0000000  -0.0000000  -0.0000000  -0.0000000  -0.0000000
 NQMom=    0.0000000   0.0000000   0.0000000   0.0000000   0.0000000   0.0000000   0.0000000   0.0000000   0.0000000   0.0000000
 NMagM=    0.0000000   0.0000000   0.0000000   0.0000000   0.0000000   0.0000000   0.0000000   0.0000000   0.0000000   2.7928460
 AtZNuc=   6.0000000   6.0000000   6.0000000   6.0000000   6.0000000   6.0000000   6.0000000   6.0000000   6.0000000   1.0000000

  Atom        11          12          13          14          15          16          17          18          19          20
 IAtWgt=           1           1           1           1          16          16          16          16          16          32
 AtmWgt=   1.0078250   1.0078250   1.0078250   1.0078250  15.9949146  15.9949146  15.9949146  15.9949146  15.9949146  31.9720718
 NucSpn=           1           1           1           1           0           0           0           0           0           0
 AtZEff=  -0.0000000  -0.0000000  -0.0000000  -0.0000000  -0.0000000  -0.0000000  -0.0000000  -0.0000000  -0.0000000  -0.0000000
 NQMom=    0.0000000   0.0000000   0.0000000   0.0000000   0.0000000   0.0000000   0.0000000   0.0000000   0.0000000   0.0000000
 NMagM=    2.7928460   2.7928460   2.7928460   2.7928460   0.0000000   0.0000000   0.0000000   0.0000000   0.0000000   0.0000000
 AtZNuc=   1.0000000   1.0000000   1.0000000   1.0000000   8.0000000   8.0000000   8.0000000   8.0000000   8.0000000  16.0000000

  Atom        21          22          23          24          25          26          27          28          29          30
 IAtWgt=          32          32          16          16          16          16          16          16          12          12
 AtmWgt=  31.9720718  31.9720718  15.9949146  15.9949146  15.9949146  15.9949146  15.9949146  15.9949146  12.0000000  12.0000000
 NucSpn=           0           0           0           0           0           0           0           0           0           0
 AtZEff=  -0.0000000  -0.0000000  -0.0000000  -0.0000000  -0.0000000  -0.0000000  -0.0000000  -0.0000000  -0.0000000  -0.0000000
 NQMom=    0.0000000   0.0000000   0.0000000   0.0000000   0.0000000   0.0000000   0.0000000   0.0000000   0.0000000   0.0000000
 NMagM=    0.0000000   0.0000000   0.0000000   0.0000000   0.0000000   0.0000000   0.0000000   0.0000000   0.0000000   0.0000000
 AtZNuc=  16.0000000  16.0000000   8.0000000   8.0000000   8.0000000   8.0000000   8.0000000   8.0000000   6.0000000   6.0000000

  Atom        31          32          33          34          35          36          37          38          39          40
 IAtWgt=          12          19          19          19          19          19          19          19          19          19
 AtmWgt=  12.0000000  18.9984032  18.9984032  18.9984032  18.9984032  18.9984032  18.9984032  18.9984032  18.9984032  18.9984032
 NucSpn=           0           1           1           1           1           1           1           1           1           1
 AtZEff=  -0.0000000  -0.0000000  -0.0000000  -0.0000000  -0.0000000  -0.0000000  -0.0000000  -0.0000000  -0.0000000  -0.0000000
 NQMom=    0.0000000   0.0000000   0.0000000   0.0000000   0.0000000   0.0000000   0.0000000   0.0000000   0.0000000   0.0000000
 NMagM=    0.0000000   2.6288670   2.6288670   2.6288670   2.6288670   2.6288670   2.6288670   2.6288670   2.6288670   2.6288670
 AtZNuc=   6.0000000   9.0000000   9.0000000   9.0000000   9.0000000   9.0000000   9.0000000   9.0000000   9.0000000   9.0000000

  Atom        41          42          43          44          45          46          47          48          49          50
 IAtWgt=          12           1          12          12          12          12          12          12           1           1
 AtmWgt=  12.0000000   1.0078250  12.0000000  12.0000000  12.0000000  12.0000000  12.0000000  12.0000000   1.0078250   1.0078250
 NucSpn=           0           1           0           0           0           0           0           0           1           1
 AtZEff=  -0.0000000  -0.0000000  -0.0000000  -0.0000000  -0.0000000  -0.0000000  -0.0000000  -0.0000000  -0.0000000  -0.0000000
 NQMom=    0.0000000   0.0000000   0.0000000   0.0000000   0.0000000   0.0000000   0.0000000   0.0000000   0.0000000   0.0000000
 NMagM=    0.0000000   2.7928460   0.0000000   0.0000000   0.0000000   0.0000000   0.0000000   0.0000000   2.7928460   2.7928460
 AtZNuc=   6.0000000   1.0000000   6.0000000   6.0000000   6.0000000   6.0000000   6.0000000   6.0000000   1.0000000   1.0000000

  Atom        51          52          53          54          55          56          57          58          59          60
 IAtWgt=           1          14          14          14          14          12           1          45          12           1
 AtmWgt=   1.0078250  14.0030740  14.0030740  14.0030740  14.0030740  12.0000000   1.0078250  44.9559136  12.0000000   1.0078250
 NucSpn=           1           2           2           2           2           0           1           7           0           1
 AtZEff=  -0.0000000  -0.0000000  -0.0000000  -0.0000000  -0.0000000  -0.0000000  -0.0000000  -0.0000000  -0.0000000  -0.0000000
 NQMom=    0.0000000   2.0440000   2.0440000   2.0440000   2.0440000   0.0000000   0.0000000 -22.0000000   0.0000000   0.0000000
 NMagM=    2.7928460   0.4037610   0.4037610   0.4037610   0.4037610   0.0000000   2.7928460   4.7564830   0.0000000   2.7928460
 AtZNuc=   1.0000000   7.0000000   7.0000000   7.0000000   7.0000000   6.0000000   1.0000000  21.0000000   6.0000000   1.0000000

  Atom        61          62          63          64          65          66          67          68          69
 IAtWgt=           1          12           1           1           1          12           1           1           1
 AtmWgt=   1.0078250  12.0000000   1.0078250   1.0078250   1.0078250  12.0000000   1.0078250   1.0078250   1.0078250
 NucSpn=           1           0           1           1           1           0           1           1           1
 AtZEff=  -0.0000000  -0.0000000  -0.0000000  -0.0000000  -0.0000000  -0.0000000  -0.0000000  -0.0000000  -0.0000000
 NQMom=    0.0000000   0.0000000   0.0000000   0.0000000   0.0000000   0.0000000   0.0000000   0.0000000   0.0000000
 NMagM=    2.7928460   0.0000000   2.7928460   2.7928460   2.7928460   0.0000000   2.7928460   2.7928460   2.7928460
 AtZNuc=   1.0000000   6.0000000   1.0000000   1.0000000   1.0000000   6.0000000   1.0000000   1.0000000   1.0000000
 Leave Link  101 at Tue Mar  4 15:05:11 2025, MaxMem= 82678120448 cpu:               5.6 elap:               0.6
 (Enter /sysapps/ubuntu-applications/gaussian-new/avx/g16/l103.exe)

 GradGradGradGradGradGradGradGradGradGradGradGradGradGradGradGradGradGrad
 Berny optimization.
 Initialization pass.
 Trust Radius=3.00D-01 FncErr=1.00D-07 GrdErr=1.00D-07 EigMax=2.50D+02 EigMin=1.00D-04
 Number of steps in this run=      2 maximum allowed number of steps=      2.
 GradGradGradGradGradGradGradGradGradGradGradGradGradGradGradGradGradGrad

 Leave Link  103 at Tue Mar  4 15:05:11 2025, MaxMem= 82678120448 cpu:               2.4 elap:               0.3
 (Enter /sysapps/ubuntu-applications/gaussian-new/avx/g16/l202.exe)
 Stoichiometry    C23H18F9N4O11S3Sc
 Framework group  C1[X(C23H18F9N4O11S3Sc)]
 Deg. of freedom   201
 Full point group                 C1      NOp   1
 Largest Abelian subgroup         C1      NOp   1
 Largest concise Abelian subgroup C1      NOp   1
                         Standard orientation:                         
 ---------------------------------------------------------------------
 Center     Atomic      Atomic             Coordinates (Angstroms)
 Number     Number       Type             X           Y           Z
 ---------------------------------------------------------------------
      1          6           0        5.516226   -0.813757    0.195496
      2          6           0        5.712082   -1.510183    1.397706
      3          6           0        6.817376   -2.349033    1.556802
      4          6           0        7.739278   -2.504966    0.519766
      5          6           0        7.553993   -1.814694   -0.680366
      6          6           0        6.451364   -0.974861   -0.838084
      7          6           0        1.773976    0.498051    0.454649
      8          6           0        1.133323    0.505263   -0.934881
      9          6           0        0.820905    0.153945    1.599153
     10          1           0        5.008725   -1.405626    2.227401
     11          1           0        6.955758   -2.884159    2.498774
     12          1           0        8.600604   -3.164610    0.646380
     13          1           0        8.269080   -1.930503   -1.497728
     14          1           0        6.307531   -0.431990   -1.776936
     15          8           0       -0.397131    0.334177    1.502154
     16          8           0       -0.076545    0.361781   -1.111749
     17          8           0       -3.440668    0.417297    1.371812
     18          8           0       -3.062316    0.574808   -1.543338
     19          8           0       -0.169131   -2.000389    0.163238
     20         16           0       -0.885776   -2.797727   -0.870266
     21         16           0       -3.699012   -0.926066    1.985635
     22         16           0       -2.904292    2.039996   -1.236891
     23          8           0       -2.007125   -1.912631   -1.335654
     24          8           0       -1.196178   -4.173926   -0.586321
     25          8           0       -2.595402   -1.772632    1.434044
     26          8           0       -3.985342   -0.992867    3.391101
     27          8           0       -1.931969    2.069509   -0.107850
     28          8           0       -2.679427    2.924008   -2.350197
     29          6           0       -4.551056    2.544536   -0.503324
     30          6           0       -5.186318   -1.515232    1.074311
     31          6           0        0.279306   -2.832397   -2.314798
     32          9           0       -4.357738    3.073954    0.685960
     33          9           0       -5.345984    1.497627   -0.408718
     34          9           0       -5.099993    3.439888   -1.300987
     35          9           0       -4.918747   -1.461167   -0.219503
     36          9           0       -6.210173   -0.734743    1.353317
     37          9           0       -5.456790   -2.755979    1.423697
     38          9           0        1.520436   -2.896298   -1.855420
     39          9           0        0.142731   -1.739947   -3.041919
     40          9           0        0.026753   -3.891722   -3.053878
     41          6           0        4.353916    0.134666   -0.024942
     42          1           0        4.315284    0.347121   -1.102406
     43          6           0        4.588234    1.545907    0.607182
     44          6           0        5.846664    2.118545    0.088467
     45          6           0        4.704183    1.438390    2.083979
     46          6           0        1.124286    2.996653    0.419473
     47          6           0        2.679798    3.987317   -1.149242
     48          6           0        1.359299    3.907168   -0.539218
     49          1           0        0.146868    2.906960    0.898310
     50          1           0        2.885209    4.681073   -1.967439
     51          1           0        0.577408    4.595478   -0.864014
     52          7           0        6.873357    2.487705   -0.295533
     53          7           0        4.734590    1.320609    3.235183
     54          7           0        3.464986    2.412955    0.286841
     55          7           0        3.663048    3.258682   -0.748558
     56          6           0        2.183015    2.017359    0.832474
     57          1           0        2.274820    2.010528    1.934223
     58         21           0       -1.791332   -0.221895    0.022179
     59          6           0        3.019774   -0.431103    0.478790
     60          1           0        2.787897   -1.349904   -0.081829
     61          1           0        3.176986   -0.746676    1.516728
     62          6           0        1.351319   -0.322104    2.904653
     63          1           0        1.528159   -1.407424    2.798925
     64          1           0        2.304789    0.142877    3.188695
     65          1           0        0.587441   -0.168854    3.675322
     66          6           0        1.990617    0.658265   -2.141717
     67          1           0        2.752096    1.438917   -2.028166
     68          1           0        2.516322   -0.299209   -2.303197
     69          1           0        1.352457    0.862869   -3.008810
 ---------------------------------------------------------------------
 Rotational constants (GHZ):           0.0897218           0.0362579           0.0319492
 Leave Link  202 at Tue Mar  4 15:05:12 2025, MaxMem= 82678120448 cpu:               5.0 elap:               0.6
 (Enter /sysapps/ubuntu-applications/gaussian-new/avx/g16/l301.exe)
 General basis read from cards:  (5D, 7F)
 Centers:      10     11     12     13     14     42     49     50     51     57
 Centers:      60     61     63     64     65     67     68     69
 S 3 1.00
     Exponent=  1.3010701000D+01 Coefficients=  1.9682158000D-02
     Exponent=  1.9622572000D+00 Coefficients=  1.3796524000D-01
     Exponent=  4.4453796000D-01 Coefficients=  4.7831935000D-01
 S 1 1.00
     Exponent=  1.2194962000D-01 Coefficients=  1.0000000000D+00
 P 1 1.00
     Exponent=  8.0000000000D-01 Coefficients=  1.0000000000D+00
 ****
 Centers:       1      2      3      4      5      6      7      8      9     29
 Centers:      30     31     41     43     44     45     46     47     48     56
 Centers:      59     62     66
 S 5 1.00
     Exponent=  1.2384016938D+03 Coefficients=  5.4568832082D-03
     Exponent=  1.8629004992D+02 Coefficients=  4.0638409211D-02
     Exponent=  4.2251176346D+01 Coefficients=  1.8025593888D-01
     Exponent=  1.1676557932D+01 Coefficients=  4.6315121755D-01
     Exponent=  3.5930506482D+00 Coefficients=  4.4087173314D-01
 S 1 1.00
     Exponent=  4.0245147363D-01 Coefficients=  1.0000000000D+00
 S 1 1.00
     Exponent=  1.3090182668D-01 Coefficients=  1.0000000000D+00
 P 3 1.00
     Exponent=  9.4680970621D+00 Coefficients=  3.8387871728D-02
     Exponent=  2.0103545142D+00 Coefficients=  2.1117025112D-01
     Exponent=  5.4771004707D-01 Coefficients=  5.1328172114D-01
 P 1 1.00
     Exponent=  1.5268613795D-01 Coefficients=  1.0000000000D+00
 D 1 1.00
     Exponent=  8.0000000000D-01 Coefficients=  1.0000000000D+00
 ****
 Centers:      52     53     54     55
 S 5 1.00
     Exponent=  1.7128415853D+03 Coefficients= -5.3934125305D-03
     Exponent=  2.5764812677D+02 Coefficients= -4.0221581118D-02
     Exponent=  5.8458245853D+01 Coefficients= -1.7931144990D-01
     Exponent=  1.6198367905D+01 Coefficients= -4.6376317823D-01
     Exponent=  5.0052600809D+00 Coefficients= -4.4171422662D-01
 S 1 1.00
     Exponent=  5.8731856571D-01 Coefficients=  1.0000000000D+00
 S 1 1.00
     Exponent=  1.8764592253D-01 Coefficients=  1.0000000000D+00
 P 3 1.00
     Exponent=  1.3571470233D+01 Coefficients= -4.0072398852D-02
     Exponent=  2.9257372874D+00 Coefficients= -2.1807045028D-01
     Exponent=  7.9927750754D-01 Coefficients= -5.1294466049D-01
 P 1 1.00
     Exponent=  2.1954348034D-01 Coefficients=  1.0000000000D+00
 D 1 1.00
     Exponent=  1.0000000000D+00 Coefficients=  1.0000000000D+00
 ****
 Centers:      15     16     17     18     19     23     24     25     26     27
 Centers:      28
 S 5 1.00
     Exponent=  2.2661767785D+03 Coefficients= -5.3431809926D-03
     Exponent=  3.4087010191D+02 Coefficients= -3.9890039230D-02
     Exponent=  7.7363135167D+01 Coefficients= -1.7853911985D-01
     Exponent=  2.1479644940D+01 Coefficients= -4.6427684959D-01
     Exponent=  6.6589433124D+00 Coefficients= -4.4309745172D-01
 S 1 1.00
     Exponent=  8.0975975668D-01 Coefficients=  1.0000000000D+00
 S 1 1.00
     Exponent=  2.5530772234D-01 Coefficients=  1.0000000000D+00
 P 3 1.00
     Exponent=  1.7721504317D+01 Coefficients=  4.3394573193D-02
     Exponent=  3.8635505440D+00 Coefficients=  2.3094120765D-01
     Exponent=  1.0480920883D+00 Coefficients=  5.1375311064D-01
 P 1 1.00
     Exponent=  2.7641544411D-01 Coefficients=  1.0000000000D+00
 D 1 1.00
     Exponent=  1.2000000000D+00 Coefficients=  1.0000000000D+00
 ****
 Centers:      32     33     34     35     36     37     38     39     40
 S 5 1.00
     Exponent=  2.8948325990D+03 Coefficients= -5.3408255515D-03
     Exponent=  4.3541939120D+02 Coefficients= -3.9904258866D-02
     Exponent=  9.8843328866D+01 Coefficients= -1.7912768038D-01
     Exponent=  2.7485198001D+01 Coefficients= -4.6758090825D-01
     Exponent=  8.5405498171D+00 Coefficients= -4.4653131020D-01
 S 1 1.00
     Exponent=  1.0654578038D+00 Coefficients=  1.0000000000D+00
 S 1 1.00
     Exponent=  3.3247346748D-01 Coefficients=  1.0000000000D+00
 P 3 1.00
     Exponent=  2.2696633924D+01 Coefficients= -4.5212874436D-02
     Exponent=  4.9872339257D+00 Coefficients= -2.3754317067D-01
     Exponent=  1.3491613954D+00 Coefficients= -5.1287353587D-01
 P 1 1.00
     Exponent=  3.4829881977D-01 Coefficients=  1.0000000000D+00
 D 1 1.00
     Exponent=  1.4000000000D+00 Coefficients=  1.0000000000D+00
 ****
 Centers:      20     21     22
 S 5 1.00
     Exponent=  9.1849303010D+03 Coefficients= -2.2294387756D-03
     Exponent=  1.3815105503D+03 Coefficients= -1.6683029937D-02
     Exponent=  3.1387147580D+02 Coefficients= -7.5262436116D-02
     Exponent=  8.8053870623D+01 Coefficients= -1.9376827038D-01
     Exponent=  2.7039914905D+01 Coefficients= -1.7718020803D-01
 S 3 1.00
     Exponent=  4.5648731303D+01 Coefficients= -1.0736062573D-01
     Exponent=  4.9664522326D+00 Coefficients=  6.5066293018D-01
     Exponent=  2.0116242047D+00 Coefficients=  5.9712155354D-01
 S 1 1.00
     Exponent=  3.5661077013D-01 Coefficients=  1.0000000000D+00
 S 1 1.00
     Exponent=  1.3507221477D-01 Coefficients=  1.0000000000D+00
 P 5 1.00
     Exponent=  2.6198233439D+02 Coefficients= -9.2729929822D-03
     Exponent=  6.1306894736D+01 Coefficients= -6.6547669241D-02
     Exponent=  1.9103729887D+01 Coefficients= -2.4828595903D-01
     Exponent=  6.6567720378D+00 Coefficients= -4.8703847402D-01
     Exponent=  2.3959635161D+00 Coefficients= -3.9337850312D-01
 P 1 1.00
     Exponent=  6.1776161679D-01 Coefficients=  1.0000000000D+00
 P 1 1.00
     Exponent=  1.6993376871D-01 Coefficients=  1.0000000000D+00
 D 1 1.00
     Exponent=  5.5000000000D-01 Coefficients=  1.0000000000D+00
 ****
 Centers:      58
 S 8 1.00
     Exponent=  1.9161291874D+05 Coefficients=  2.3076475942D-04
     Exponent=  2.8723850363D+04 Coefficients=  1.7890329946D-03
     Exponent=  6.5370116490D+03 Coefficients=  9.2990401140D-03
     Exponent=  1.8503097171D+03 Coefficients=  3.7739438011D-02
     Exponent=  6.0238855156D+02 Coefficients=  1.2227148359D-01
     Exponent=  2.1617324766D+02 Coefficients=  2.8814821470D-01
     Exponent=  8.3712517880D+01 Coefficients=  4.0517543099D-01
     Exponent=  3.2908707189D+01 Coefficients=  2.0566019623D-01
 S 4 1.00
     Exponent=  2.1134393234D+02 Coefficients= -2.4527991462D-02
     Exponent=  6.5128920139D+01 Coefficients= -1.1570158142D-01
     Exponent=  1.0034311535D+01 Coefficients=  5.5995283317D-01
     Exponent=  4.1596884597D+00 Coefficients=  5.6087765073D-01
 S 2 1.00
     Exponent=  6.0009041613D+00 Coefficients= -2.2840494325D-01
     Exponent=  9.8255784150D-01 Coefficients=  7.1948970378D-01
 S 1 1.00
     Exponent=  4.2483192773D-01 Coefficients=  1.0000000000D+00
 S 1 1.00
     Exponent=  7.7185462096D-02 Coefficients=  1.0000000000D+00
 S 1 1.00
     Exponent=  3.0147219702D-02 Coefficients=  1.0000000000D+00
 P 6 1.00
     Exponent=  9.4734122823D+02 Coefficients=  2.4737208744D-03
     Exponent=  2.2409699732D+02 Coefficients=  1.9742967060D-02
     Exponent=  7.1560334882D+01 Coefficients=  9.0357147549D-02
     Exponent=  2.6444824490D+01 Coefficients=  2.5201602503D-01
     Exponent=  1.0393798285D+01 Coefficients=  3.9675535929D-01
     Exponent=  4.1606304559D+00 Coefficients=  2.3208624517D-01
 P 3 1.00
     Exponent=  1.5565737135D+01 Coefficients= -2.7129423974D-02
     Exponent=  2.1121544865D+00 Coefficients=  5.5109256629D-01
     Exponent=  8.4184709021D-01 Coefficients=  1.0090635806D+00
 P 1 1.00
     Exponent=  3.2297542652D-01 Coefficients=  1.0000000000D+00
 P 1 1.00
     Exponent=  8.9748000000D-02 Coefficients=  1.0000000000D+00
 D 4 1.00
     Exponent=  3.0989390993D+01 Coefficients=  1.1902837431D-02
     Exponent=  8.6905465069D+00 Coefficients=  6.7655856850D-02
     Exponent=  2.9520256337D+00 Coefficients=  2.1332539722D-01
     Exponent=  1.0761910745D+00 Coefficients=  3.8391075578D-01
 D 1 1.00
     Exponent=  3.8338915095D-01 Coefficients=  4.3354716259D-01
 D 1 1.00
     Exponent=  1.2534686113D-01 Coefficients=  2.4509263822D-01
 D 1 1.00
     Exponent=  4.1000000000D-02 Coefficients=  1.0000000000D+00
 F 1 1.00
     Exponent=  3.4500000000D-01 Coefficients=  1.0000000000D+00
 ****
 Ernie: Thresh=  0.10000D-02 Tol=  0.10000D-05 Strict=F.
 There are   904 symmetry adapted cartesian basis functions of A   symmetry.
 There are   847 symmetry adapted basis functions of A   symmetry.
   847 basis functions,  1514 primitive gaussians,   904 cartesian basis functions
   211 alpha electrons      211 beta electrons
       nuclear repulsion energy      9910.5253689252 Hartrees.
 IExCor= 7252 DFT=T Ex+Corr=MN15 ExCW=0 ScaHFX=  0.440000
 ScaDFX=  1.000000  1.000000  1.000000  1.000000 ScalE2=  1.000000  1.000000
 IRadAn=      5 IRanWt=     -1 IRanGd=            0 ICorTp=0 IEmpDi=  4
 NAtoms=   69 NActive=   69 NUniq=   69 SFac= 1.00D+00 NAtFMM=   60 NAOKFM=T Big=T
 Integral buffers will be    131072 words long.
 Raffenetti 2 integral format.
 Two-electron integral symmetry is turned on.
 Force inversion solution in PCM.
 ------------------------------------------------------------------------------
 Polarizable Continuum Model (PCM)
 =================================
 Model                : PCM.
 Atomic radii         : SMD-Coulomb.
 Polarization charges : Total charges.
 Charge compensation  : None.
 Solution method      : Matrix inversion.
 Cavity type          : VdW (van der Waals Surface) (Alpha=1.000).
 Cavity algorithm     : GePol (No added spheres)
                        Default sphere list used, NSphG=   69.
                        Lebedev-Laikov grids with approx.  5.0 points / Ang**2.
                        Smoothing algorithm: York/Karplus (Gamma=1.0000).
                        Polarization charges: spherical gaussians, with
                                              point-specific exponents (IZeta= 3).
                        Self-potential: point-specific (ISelfS= 7).
                        Self-field    : sphere-specific E.n sum rule (ISelfD= 2).
 1st derivatives      : Analytical E(r).r(x)/FMM algorithm (CHGder, D1EAlg=3).
                        Cavity 1st derivative terms included.
 2nd derivatives      : Analytical E(r).r(xy)/FMM algorithm (CHGder, D2EAlg=3).
                        Cavity 2nd derivative terms included.
 Solvent              : DiChloroEthane, Eps=  10.125000 Eps(inf)=   2.087447
 ------------------------------------------------------------------------------
 GePol: Number of generator spheres                  =      69
 GePol: Total number of spheres                      =      69
 GePol: Number of exposed spheres                    =      68 ( 98.55%)
 GePol: Number of points                             =    4856
 GePol: Average weight of points                     =       0.13
 GePol: Minimum weight of points                     =   0.58D-11
 GePol: Maximum weight of points                     =    0.21501
 GePol: Number of points with low weight             =     323
 GePol: Fraction of low-weight points (<1% of avg)   =       6.65%
 GePol: Cavity surface area                          =    615.857 Ang**2
 GePol: Cavity volume                                =    734.017 Ang**3
 ------------------------------------------------------------------------------
 Atomic radii for non-electrostatic terms: SMD-CDS.
 ------------------------------------------------------------------------------
 PCM non-electrostatic energy =         0.0037249031 Hartrees.
 Nuclear repulsion after PCM non-electrostatic terms =     9910.5290938284 Hartrees.
 Leave Link  301 at Tue Mar  4 15:05:13 2025, MaxMem= 82678120448 cpu:               5.4 elap:               0.6
 (Enter /sysapps/ubuntu-applications/gaussian-new/avx/g16/l302.exe)
 NPDir=0 NMtPBC=     1 NCelOv=     1 NCel=       1 NClECP=     1 NCelD=      1
         NCelK=      1 NCelE2=     1 NClLst=     1 CellRange=     0.0.
 One-electron integrals computed using PRISM.
 One-electron integral symmetry used in STVInt
 NBasis=   847 RedAO= T EigKep=  2.13D-04  NBF=   847
 NBsUse=   847 1.00D-06 EigRej= -1.00D+00 NBFU=   847
 Precomputing XC quadrature grid using
 IXCGrd= 4 IRadAn=           5 IRanWt=          -1 IRanGd=           0 AccXCQ= 0.00D+00.
 Generated NRdTot=       0 NPtTot=           0 NUsed=           0 NTot=          32
 NSgBfM=   863   846   849   856   863 MxSgAt=    69 MxSgA2=    69.
 Leave Link  302 at Tue Mar  4 15:06:16 2025, MaxMem= 82678120448 cpu:             631.7 elap:              63.2
 (Enter /sysapps/ubuntu-applications/gaussian-new/avx/g16/l303.exe)
 DipDrv:  MaxL=1.
 Leave Link  303 at Tue Mar  4 15:06:18 2025, MaxMem= 82678120448 cpu:              23.8 elap:               2.5
 (Enter /sysapps/ubuntu-applications/gaussian-new/avx/g16/l401.exe)
 ExpMin= 3.01D-02 ExpMax= 1.92D+05 ExpMxC= 1.85D+03 IAcc=3 IRadAn=         5 AccDes= 0.00D+00
 Harris functional with IExCor= 1009 and IRadAn=       5 diagonalized for initial guess.
 HarFok:  IExCor= 1009 AccDes= 0.00D+00 IRadAn=         5 IDoV= 1 UseB2=F ITyADJ=14
 ICtDFT=  3500011 ScaDFX=  1.000000  1.000000  1.000000  1.000000
 FoFCou: FMM=F IPFlag=           0 FMFlag=      100000 FMFlg1=        2001
         NFxFlg=           0 DoJE=T BraDBF=F KetDBF=T FulRan=T
         wScrn=  0.000000 ICntrl=       500 IOpCl=  0 I1Cent=   200000004 NGrid=           0
         NMat0=    1 NMatS0=      1 NMatT0=    0 NMatD0=    1 NMtDS0=    0 NMtDT0=    0
 Petite list used in FoFCou.
 Harris En= -4781.87592571840    
 JPrj=0 DoOrth=F DoCkMO=F.
 Leave Link  401 at Tue Mar  4 15:07:33 2025, MaxMem= 82678120448 cpu:             740.1 elap:              74.2
 (Enter /sysapps/ubuntu-applications/gaussian-new/avx/g16/l502.exe)
 Integral symmetry usage will be decided dynamically.
 Closed shell SCF:
 Using DIIS extrapolation, IDIIS=  1040.
 NGot= 82678120448 LenX= 82676454397 LenY= 82675636277
 Requested convergence on RMS density matrix=1.00D-08 within 500 cycles.
 Requested convergence on MAX density matrix=1.00D-06.
 Requested convergence on             energy=1.00D-06.
 No special actions if energy rises.
 Fock matrices will be formed incrementally for  20 cycles.

 Cycle   1  Pass 1  IDiag  1:
 FoFJK:  IHMeth= 1 ICntrl=       0 DoSepK=F KAlg= 0 I1Cent=           0 FoldK=F
 IRaf= 820000000 NMat=       1 IRICut=       1 DoRegI=T DoRafI=F ISym2E= 0 IDoP0=0 IntGTp=1.
 FoFCou: FMM=T IPFlag=           0 FMFlag=      100000 FMFlg1=        2001
         NFxFlg=           0 DoJE=F BraDBF=F KetDBF=F FulRan=T
         wScrn=  0.000000 ICntrl=         0 IOpCl=  0 I1Cent=           0 NGrid=           0
         NMat0=    1 NMatS0=      1 NMatT0=    0 NMatD0=    1 NMtDS0=    0 NMtDT0=    0
 Symmetry not used in FoFCou.
 FMM levels:  10  Number of levels for PrismC:   9
 Inv3:  Mode=1 IEnd=    70742208.
 Iteration    1 A*A^-1 deviation from unit magnitude is 8.22D-15 for   4847.
 Iteration    1 A*A^-1 deviation from orthogonality  is 3.60D-15 for   4839   4370.
 Iteration    1 A^-1*A deviation from unit magnitude is 8.44D-15 for   4847.
 Iteration    1 A^-1*A deviation from orthogonality  is 8.02D-15 for   3698   3677.
 E= -4780.24404372186    
 DIIS: error= 2.37D-02 at cycle   1 NSaved=   1.
 NSaved= 1 IEnMin= 1 EnMin= -4780.24404372186     IErMin= 1 ErrMin= 2.37D-02
 ErrMax= 2.37D-02  0.00D+00 EMaxC= 1.00D-01 BMatC= 1.92D+00 BMatP= 1.92D+00
 IDIUse=3 WtCom= 7.63D-01 WtEn= 2.37D-01
 Coeff-Com:  0.100D+01
 Coeff-En:   0.100D+01
 Coeff:      0.100D+01
 Gap=     0.240 Goal=   None    Shift=    0.000
 GapD=    0.240 DampG=1.000 DampE=0.250 DampFc=0.2500 IDamp=-1.
 Damping current iteration by 2.50D-01
 RMSDP=3.76D-03 MaxDP=4.50D-01              OVMax= 2.38D-01

 Cycle   2  Pass 1  IDiag  1:
 RMSU=  9.39D-04    CP:  9.98D-01
 E= -4780.76574638772     Delta-E=       -0.521702665856 Rises=F Damp=T
 DIIS: error= 9.47D-03 at cycle   2 NSaved=   2.
 NSaved= 2 IEnMin= 2 EnMin= -4780.76574638772     IErMin= 2 ErrMin= 9.47D-03
 ErrMax= 9.47D-03  0.00D+00 EMaxC= 1.00D-01 BMatC= 3.41D-01 BMatP= 1.92D+00
 IDIUse=3 WtCom= 9.05D-01 WtEn= 9.47D-02
 Coeff-Com: -0.583D+00 0.158D+01
 Coeff-En:   0.000D+00 0.100D+01
 Coeff:     -0.528D+00 0.153D+01
 Gap=     0.273 Goal=   None    Shift=    0.000
 RMSDP=1.03D-03 MaxDP=1.29D-01 DE=-5.22D-01 OVMax= 1.88D-01

 Cycle   3  Pass 1  IDiag  1:
 RMSU=  8.38D-04    CP:  9.93D-01  1.64D+00
 E= -4781.66643720329     Delta-E=       -0.900690815566 Rises=F Damp=F
 DIIS: error= 7.49D-03 at cycle   3 NSaved=   3.
 NSaved= 3 IEnMin= 3 EnMin= -4781.66643720329     IErMin= 3 ErrMin= 7.49D-03
 ErrMax= 7.49D-03  0.00D+00 EMaxC= 1.00D-01 BMatC= 5.48D-02 BMatP= 3.41D-01
 IDIUse=3 WtCom= 9.25D-01 WtEn= 7.49D-02
 Coeff-Com: -0.298D+00 0.688D+00 0.609D+00
 Coeff-En:   0.000D+00 0.000D+00 0.100D+01
 Coeff:     -0.275D+00 0.636D+00 0.639D+00
 Gap=     0.207 Goal=   None    Shift=    0.000
 RMSDP=3.95D-04 MaxDP=3.77D-02 DE=-9.01D-01 OVMax= 4.36D-02

 Cycle   4  Pass 1  IDiag  1:
 RMSU=  3.27D-04    CP:  9.95D-01  1.72D+00  7.52D-01
 E= -4781.70155157991     Delta-E=       -0.035114376627 Rises=F Damp=F
 DIIS: error= 5.51D-03 at cycle   4 NSaved=   4.
 NSaved= 4 IEnMin= 4 EnMin= -4781.70155157991     IErMin= 4 ErrMin= 5.51D-03
 ErrMax= 5.51D-03  0.00D+00 EMaxC= 1.00D-01 BMatC= 1.91D-02 BMatP= 5.48D-02
 IDIUse=3 WtCom= 9.45D-01 WtEn= 5.51D-02
 Coeff-Com: -0.114D+00 0.220D+00 0.392D+00 0.502D+00
 Coeff-En:   0.000D+00 0.000D+00 0.230D+00 0.770D+00
 Coeff:     -0.108D+00 0.207D+00 0.383D+00 0.517D+00
 Gap=     0.200 Goal=   None    Shift=    0.000
 RMSDP=1.88D-04 MaxDP=1.90D-02 DE=-3.51D-02 OVMax= 2.77D-02

 Cycle   5  Pass 1  IDiag  1:
 RMSU=  1.29D-04    CP:  9.95D-01  1.69D+00  8.15D-01  6.23D-01
 E= -4781.71563429283     Delta-E=       -0.014082712913 Rises=F Damp=F
 DIIS: error= 2.02D-03 at cycle   5 NSaved=   5.
 NSaved= 5 IEnMin= 5 EnMin= -4781.71563429283     IErMin= 5 ErrMin= 2.02D-03
 ErrMax= 2.02D-03  0.00D+00 EMaxC= 1.00D-01 BMatC= 2.38D-03 BMatP= 1.91D-02
 IDIUse=3 WtCom= 9.80D-01 WtEn= 2.02D-02
 Coeff-Com: -0.306D-01 0.396D-01 0.134D+00 0.301D+00 0.556D+00
 Coeff-En:   0.000D+00 0.000D+00 0.000D+00 0.840D-01 0.916D+00
 Coeff:     -0.299D-01 0.388D-01 0.131D+00 0.297D+00 0.564D+00
 Gap=     0.202 Goal=   None    Shift=    0.000
 RMSDP=5.99D-05 MaxDP=6.50D-03 DE=-1.41D-02 OVMax= 9.30D-03

 Cycle   6  Pass 1  IDiag  1:
 RMSU=  4.23D-05    CP:  9.95D-01  1.70D+00  8.21D-01  6.73D-01  7.27D-01
 E= -4781.71766360401     Delta-E=       -0.002029311187 Rises=F Damp=F
 DIIS: error= 4.26D-04 at cycle   6 NSaved=   6.
 NSaved= 6 IEnMin= 6 EnMin= -4781.71766360401     IErMin= 6 ErrMin= 4.26D-04
 ErrMax= 4.26D-04  0.00D+00 EMaxC= 1.00D-01 BMatC= 1.49D-04 BMatP= 2.38D-03
 IDIUse=3 WtCom= 9.96D-01 WtEn= 4.26D-03
 Coeff-Com: -0.517D-02 0.217D-03 0.274D-01 0.864D-01 0.269D+00 0.622D+00
 Coeff-En:   0.000D+00 0.000D+00 0.000D+00 0.000D+00 0.000D+00 0.100D+01
 Coeff:     -0.515D-02 0.216D-03 0.272D-01 0.861D-01 0.268D+00 0.624D+00
 Gap=     0.202 Goal=   None    Shift=    0.000
 RMSDP=1.91D-05 MaxDP=1.71D-03 DE=-2.03D-03 OVMax= 2.31D-03

 Cycle   7  Pass 1  IDiag  1:
 RMSU=  1.51D-05    CP:  9.95D-01  1.70D+00  8.27D-01  6.79D-01  7.87D-01
                    CP:  8.34D-01
 E= -4781.71777747566     Delta-E=       -0.000113871643 Rises=F Damp=F
 DIIS: error= 1.14D-04 at cycle   7 NSaved=   7.
 NSaved= 7 IEnMin= 7 EnMin= -4781.71777747566     IErMin= 7 ErrMin= 1.14D-04
 ErrMax= 1.14D-04  0.00D+00 EMaxC= 1.00D-01 BMatC= 3.02D-05 BMatP= 1.49D-04
 IDIUse=3 WtCom= 9.99D-01 WtEn= 1.14D-03
 Coeff-Com:  0.596D-03-0.437D-02-0.111D-02 0.101D-01 0.869D-01 0.371D+00
 Coeff-Com:  0.537D+00
 Coeff-En:   0.000D+00 0.000D+00 0.000D+00 0.000D+00 0.000D+00 0.467D-01
 Coeff-En:   0.953D+00
 Coeff:      0.596D-03-0.437D-02-0.111D-02 0.101D-01 0.868D-01 0.371D+00
 Coeff:      0.537D+00
 Gap=     0.202 Goal=   None    Shift=    0.000
 RMSDP=7.95D-06 MaxDP=9.64D-04 DE=-1.14D-04 OVMax= 1.67D-03

 Cycle   8  Pass 1  IDiag  1:
 RMSU=  6.11D-06    CP:  9.95D-01  1.70D+00  8.28D-01  6.81D-01  8.04D-01
                    CP:  9.19D-01  8.33D-01
 E= -4781.71780231356     Delta-E=       -0.000024837902 Rises=F Damp=F
 DIIS: error= 2.68D-05 at cycle   8 NSaved=   8.
 NSaved= 8 IEnMin= 8 EnMin= -4781.71780231356     IErMin= 8 ErrMin= 2.68D-05
 ErrMax= 2.68D-05  0.00D+00 EMaxC= 1.00D-01 BMatC= 1.97D-06 BMatP= 3.02D-05
 IDIUse=1 WtCom= 1.00D+00 WtEn= 0.00D+00
 Coeff-Com:  0.110D-02-0.166D-02-0.467D-02-0.111D-01-0.990D-02 0.414D-01
 Coeff-Com:  0.217D+00 0.768D+00
 Coeff:      0.110D-02-0.166D-02-0.467D-02-0.111D-01-0.990D-02 0.414D-01
 Coeff:      0.217D+00 0.768D+00
 Gap=     0.202 Goal=   None    Shift=    0.000
 RMSDP=3.55D-06 MaxDP=2.23D-04 DE=-2.48D-05 OVMax= 1.10D-03

 Cycle   9  Pass 1  IDiag  1:
 RMSU=  2.41D-06    CP:  9.95D-01  1.70D+00  8.28D-01  6.82D-01  8.13D-01
                    CP:  9.59D-01  9.36D-01  1.02D+00
 E= -4781.71780494576     Delta-E=       -0.000002632201 Rises=F Damp=F
 DIIS: error= 1.02D-05 at cycle   9 NSaved=   9.
 NSaved= 9 IEnMin= 9 EnMin= -4781.71780494576     IErMin= 9 ErrMin= 1.02D-05
 ErrMax= 1.02D-05  0.00D+00 EMaxC= 1.00D-01 BMatC= 2.98D-07 BMatP= 1.97D-06
 IDIUse=1 WtCom= 1.00D+00 WtEn= 0.00D+00
 Coeff-Com:  0.551D-03-0.491D-03-0.183D-02-0.601D-02-0.129D-01-0.240D-01
 Coeff-Com:  0.330D-01 0.329D+00 0.683D+00
 Coeff:      0.551D-03-0.491D-03-0.183D-02-0.601D-02-0.129D-01-0.240D-01
 Coeff:      0.330D-01 0.329D+00 0.683D+00
 Gap=     0.202 Goal=   None    Shift=    0.000
 RMSDP=1.46D-06 MaxDP=1.59D-04 DE=-2.63D-06 OVMax= 4.33D-04

 Cycle  10  Pass 1  IDiag  1:
 RMSU=  7.88D-07    CP:  9.95D-01  1.70D+00  8.28D-01  6.82D-01  8.17D-01
                    CP:  9.75D-01  9.74D-01  1.12D+00  9.61D-01
 E= -4781.71780534467     Delta-E=       -0.000000398906 Rises=F Damp=F
 DIIS: error= 3.52D-06 at cycle  10 NSaved=  10.
 NSaved=10 IEnMin=10 EnMin= -4781.71780534467     IErMin=10 ErrMin= 3.52D-06
 ErrMax= 3.52D-06  0.00D+00 EMaxC= 1.00D-01 BMatC= 4.58D-08 BMatP= 2.98D-07
 IDIUse=1 WtCom= 1.00D+00 WtEn= 0.00D+00
 Coeff-Com:  0.114D-03-0.146D-04 0.186D-04-0.866D-03-0.383D-02-0.171D-01
 Coeff-Com: -0.172D-01 0.264D-01 0.288D+00 0.725D+00
 Coeff:      0.114D-03-0.146D-04 0.186D-04-0.866D-03-0.383D-02-0.171D-01
 Coeff:     -0.172D-01 0.264D-01 0.288D+00 0.725D+00
 Gap=     0.202 Goal=   None    Shift=    0.000
 RMSDP=6.17D-07 MaxDP=4.07D-05 DE=-3.99D-07 OVMax= 1.90D-04

 Cycle  11  Pass 1  IDiag  1:
 RMSU=  3.45D-07    CP:  9.95D-01  1.70D+00  8.28D-01  6.82D-01  8.18D-01
                    CP:  9.78D-01  9.92D-01  1.16D+00  1.07D+00  9.78D-01
 E= -4781.71780540419     Delta-E=       -0.000000059519 Rises=F Damp=F
 DIIS: error= 2.21D-06 at cycle  11 NSaved=  11.
 NSaved=11 IEnMin=11 EnMin= -4781.71780540419     IErMin=11 ErrMin= 2.21D-06
 ErrMax= 2.21D-06  0.00D+00 EMaxC= 1.00D-01 BMatC= 1.38D-08 BMatP= 4.58D-08
 IDIUse=1 WtCom= 1.00D+00 WtEn= 0.00D+00
 Coeff-Com: -0.131D-04 0.553D-04 0.346D-03 0.552D-03-0.624D-04-0.605D-02
 Coeff-Com: -0.159D-01-0.442D-01 0.391D-01 0.414D+00 0.613D+00
 Coeff:     -0.131D-04 0.553D-04 0.346D-03 0.552D-03-0.624D-04-0.605D-02
 Coeff:     -0.159D-01-0.442D-01 0.391D-01 0.414D+00 0.613D+00
 Gap=     0.202 Goal=   None    Shift=    0.000
 RMSDP=2.59D-07 MaxDP=1.34D-05 DE=-5.95D-08 OVMax= 8.07D-05

 Cycle  12  Pass 1  IDiag  1:
 RMSU=  1.30D-07    CP:  9.95D-01  1.70D+00  8.28D-01  6.82D-01  8.18D-01
                    CP:  9.80D-01  9.97D-01  1.18D+00  1.11D+00  1.09D+00
                    CP:  8.95D-01
 E= -4781.71780541832     Delta-E=       -0.000000014134 Rises=F Damp=F
 DIIS: error= 6.06D-07 at cycle  12 NSaved=  12.
 NSaved=12 IEnMin=12 EnMin= -4781.71780541832     IErMin=12 ErrMin= 6.06D-07
 ErrMax= 6.06D-07  0.00D+00 EMaxC= 1.00D-01 BMatC= 1.28D-09 BMatP= 1.38D-08
 IDIUse=1 WtCom= 1.00D+00 WtEn= 0.00D+00
 Coeff-Com: -0.136D-04 0.149D-04 0.152D-03 0.373D-03 0.483D-03-0.223D-03
 Coeff-Com: -0.459D-02-0.244D-01-0.231D-01 0.793D-01 0.283D+00 0.689D+00
 Coeff:     -0.136D-04 0.149D-04 0.152D-03 0.373D-03 0.483D-03-0.223D-03
 Coeff:     -0.459D-02-0.244D-01-0.231D-01 0.793D-01 0.283D+00 0.689D+00
 Gap=     0.202 Goal=   None    Shift=    0.000
 RMSDP=7.88D-08 MaxDP=3.78D-06 DE=-1.41D-08 OVMax= 2.67D-05

 Cycle  13  Pass 1  IDiag  1:
 RMSU=  4.38D-08    CP:  9.95D-01  1.70D+00  8.28D-01  6.82D-01  8.18D-01
                    CP:  9.81D-01  9.99D-01  1.18D+00  1.13D+00  1.12D+00
                    CP:  9.71D-01  9.07D-01
 E= -4781.71780541963     Delta-E=       -0.000000001311 Rises=F Damp=F
 DIIS: error= 1.76D-07 at cycle  13 NSaved=  13.
 NSaved=13 IEnMin=13 EnMin= -4781.71780541963     IErMin=13 ErrMin= 1.76D-07
 ErrMax= 1.76D-07  0.00D+00 EMaxC= 1.00D-01 BMatC= 1.52D-10 BMatP= 1.28D-09
 IDIUse=1 WtCom= 1.00D+00 WtEn= 0.00D+00
 Coeff-Com: -0.348D-05-0.602D-06 0.360D-04 0.117D-03 0.223D-03 0.523D-03
 Coeff-Com: -0.426D-03-0.695D-02-0.132D-01-0.686D-02 0.710D-01 0.324D+00
 Coeff-Com:  0.632D+00
 Coeff:     -0.348D-05-0.602D-06 0.360D-04 0.117D-03 0.223D-03 0.523D-03
 Coeff:     -0.426D-03-0.695D-02-0.132D-01-0.686D-02 0.710D-01 0.324D+00
 Coeff:      0.632D+00
 Gap=     0.202 Goal=   None    Shift=    0.000
 RMSDP=2.29D-08 MaxDP=1.68D-06 DE=-1.31D-09 OVMax= 4.88D-06

 Cycle  14  Pass 1  IDiag  1:
 RMSU=  1.50D-08    CP:  9.95D-01  1.70D+00  8.28D-01  6.82D-01  8.18D-01
                    CP:  9.81D-01  9.99D-01  1.18D+00  1.13D+00  1.13D+00
                    CP:  9.97D-01  9.59D-01  9.16D-01
 E= -4781.71780541981     Delta-E=       -0.000000000176 Rises=F Damp=F
 DIIS: error= 7.75D-08 at cycle  14 NSaved=  14.
 NSaved=14 IEnMin=14 EnMin= -4781.71780541981     IErMin=14 ErrMin= 7.75D-08
 ErrMax= 7.75D-08  0.00D+00 EMaxC= 1.00D-01 BMatC= 1.74D-11 BMatP= 1.52D-10
 IDIUse=1 WtCom= 1.00D+00 WtEn= 0.00D+00
 Coeff-Com:  0.526D-06-0.232D-05-0.727D-05-0.442D-05 0.243D-04 0.274D-03
 Coeff-Com:  0.561D-03 0.575D-03-0.178D-02-0.164D-01-0.122D-01 0.345D-01
 Coeff-Com:  0.269D+00 0.725D+00
 Coeff:      0.526D-06-0.232D-05-0.727D-05-0.442D-05 0.243D-04 0.274D-03
 Coeff:      0.561D-03 0.575D-03-0.178D-02-0.164D-01-0.122D-01 0.345D-01
 Coeff:      0.269D+00 0.725D+00
 Gap=     0.202 Goal=   None    Shift=    0.000
 RMSDP=1.03D-08 MaxDP=7.30D-07 DE=-1.76D-10 OVMax= 2.82D-06

 Cycle  15  Pass 1  IDiag  1:
 RMSU=  6.60D-09    CP:  9.95D-01  1.70D+00  8.28D-01  6.82D-01  8.18D-01
                    CP:  9.81D-01  9.99D-01  1.18D+00  1.13D+00  1.14D+00
                    CP:  1.01D+00  9.91D-01  1.00D+00  9.74D-01
 E= -4781.71780541980     Delta-E=        0.000000000011 Rises=F Damp=F
 DIIS: error= 3.74D-08 at cycle  15 NSaved=  15.
 NSaved=15 IEnMin=14 EnMin= -4781.71780541981     IErMin=15 ErrMin= 3.74D-08
 ErrMax= 3.74D-08  0.00D+00 EMaxC= 1.00D-01 BMatC= 3.27D-12 BMatP= 1.74D-11
 IDIUse=1 WtCom= 1.00D+00 WtEn= 0.00D+00
 Coeff-Com:  0.476D-06-0.808D-06-0.748D-05-0.150D-04-0.133D-04 0.660D-04
 Coeff-Com:  0.318D-03 0.104D-02 0.793D-03-0.705D-02-0.139D-01-0.241D-01
 Coeff-Com:  0.441D-01 0.359D+00 0.640D+00
 Coeff:      0.476D-06-0.808D-06-0.748D-05-0.150D-04-0.133D-04 0.660D-04
 Coeff:      0.318D-03 0.104D-02 0.793D-03-0.705D-02-0.139D-01-0.241D-01
 Coeff:      0.441D-01 0.359D+00 0.640D+00
 Gap=     0.202 Goal=   None    Shift=    0.000
 RMSDP=3.34D-09 MaxDP=1.88D-07 DE= 1.09D-11 OVMax= 8.76D-07

 Error on total polarization charges =  0.03575
 SCF Done:  E(RMN15) =  -4781.71780542     A.U. after   15 cycles
            NFock= 15  Conv=0.33D-08     -V/T= 2.0064
 KE= 4.751176250496D+03 PE=-3.109030918990D+04 EE= 1.164688604016D+04
 SMD-CDS (non-electrostatic) energy       (kcal/mol) =       2.34
 (included in total energy above)
 Leave Link  502 at Tue Mar  4 15:36:55 2025, MaxMem= 82678120448 cpu:           16705.9 elap:            1762.1
 (Enter /sysapps/ubuntu-applications/gaussian-new/avx/g16/l801.exe)
 DoSCS=F DFT=T ScalE2(SS,OS)=  1.000000  1.000000
 Range of M.O.s used for correlation:     1   847
 NBasis=   847 NAE=   211 NBE=   211 NFC=     0 NFV=     0
 NROrb=    847 NOA=   211 NOB=   211 NVA=   636 NVB=   636

 **** Warning!!: The largest alpha MO coefficient is  0.11238819D+02

 Leave Link  801 at Tue Mar  4 15:36:56 2025, MaxMem= 82678120448 cpu:               4.1 elap:               0.5
 (Enter /sysapps/ubuntu-applications/gaussian-new/avx/g16/l1101.exe)
 Using compressed storage, NAtomX=    69.
 Will process     70 centers per pass.
 Leave Link 1101 at Tue Mar  4 15:38:44 2025, MaxMem= 82678120448 cpu:            1042.2 elap:             108.6
 (Enter /sysapps/ubuntu-applications/gaussian-new/avx/g16/l1102.exe)
 Symmetrizing basis deriv contribution to polar:
 IMax=3 JMax=2 DiffMx= 0.00D+00
 Leave Link 1102 at Tue Mar  4 15:38:48 2025, MaxMem= 82678120448 cpu:              10.0 elap:               3.0
 (Enter /sysapps/ubuntu-applications/gaussian-new/avx/g16/l1110.exe)
 Forming Gx(P) for the SCF density, NAtomX=    69.
 Integral derivatives from FoFJK, PRISM(SPDF).
 Do as many integral derivatives as possible in FoFJK.
 G2DrvN: MDV=   82678114378.
 G2DrvN: will do    70 centers at a time, making    1 passes.
 Calling FoFCou, ICntrl=  3107 FMM=T I1Cent=   0 AccDes= 0.00D+00.
 FoFJK:  IHMeth= 1 ICntrl=    3107 DoSepK=F KAlg= 0 I1Cent=           0 FoldK=F
 IRaf=         0 NMat=       1 IRICut=       1 DoRegI=T DoRafI=F ISym2E= 0 IDoP0=0 IntGTp=1.
 FoFCou: FMM=T IPFlag=           0 FMFlag=      100000 FMFlg1=        2001
         NFxFlg=           0 DoJE=F BraDBF=F KetDBF=F FulRan=T
         wScrn=  0.000000 ICntrl=      3107 IOpCl=  0 I1Cent=           0 NGrid=           0
         NMat0=    1 NMatS0=      1 NMatT0=    0 NMatD0=    1 NMtDS0=    0 NMtDT0=    0
 Symmetry not used in FoFCou.
 FMM levels:  10  Number of levels for PrismC:   9
 NEqPCM:  Using equilibrium solvation (IEInf=0, Eps=  10.1250, EpsInf=   2.0874)
 G2PCM: DoFxE=T DoFxN=T DoGrad=T DoDP/DQ/DG/TGxP=FFFF NFrqRd=   0 IEInf=0 SqF1=F DoCFld=F IF1Alg=4.
 GePol: Maximum number of non-zero 1st derivatives   =     266
 End of G2Drv F.D. properties file   721 does not exist.
 End of G2Drv F.D. properties file   722 does not exist.
 End of G2Drv F.D. properties file   788 does not exist.
 Leave Link 1110 at Tue Mar  4 17:04:15 2025, MaxMem= 82678120448 cpu:           45439.2 elap:            5127.2
 (Enter /sysapps/ubuntu-applications/gaussian-new/avx/g16/l1002.exe)
 Minotr:  Closed shell wavefunction.
          IDoAtm=11111111111111111111111111111111111111111111111111
          IDoAtm=1111111111111111111
 NEqPCM:  Using equilibrium solvation (IEInf=0, Eps=  10.1250, EpsInf=   2.0874)
          Direct CPHF calculation.
          Differentiating once with respect to electric field.
                with respect to dipole field.
          Differentiating once with respect to nuclear coordinates.
          Requested convergence is 1.0D-08 RMS, and 1.0D-07 maximum.
          Secondary convergence is 1.0D-12 RMS, and 1.0D-12 maximum.
          NewPWx=T KeepS1=F KeepF1=F KeepIn=T MapXYZ=F SortEE=F KeepMc=T.
        21347 words used for storage of precomputed grid.
 Two-electron integrals replicated using symmetry.
          MDV=   82678120448 using IRadAn=       1.
          Solving linear equations simultaneously, MaxMat=      72.
 FoF2E skips out because all densities are zero.
 CalDSu exits because no D1Ps are significant.
 FoFJK:  IHMeth= 1 ICntrl=       0 DoSepK=F KAlg= 0 I1Cent=           0 FoldK=F
 IRaf= 770000000 NMat=      72 IRICut=       1 DoRegI=T DoRafI=F ISym2E= 2 IDoP0=3 IntGTp=3.
          There are   210 degrees of freedom in the 1st order CPHF.  IDoFFX=6 NUNeed=     3.
    210 vectors produced by pass  0 Test12= 1.34D-13 1.00D-09 XBig12= 2.44D+02 4.49D+00.
 AX will form    72 AO Fock derivatives at one time.
    207 vectors produced by pass  1 Test12= 1.34D-13 1.00D-09 XBig12= 4.33D+01 6.79D-01.
    207 vectors produced by pass  2 Test12= 1.34D-13 1.00D-09 XBig12= 1.62D+00 1.00D-01.
    207 vectors produced by pass  3 Test12= 1.34D-13 1.00D-09 XBig12= 2.43D-02 1.19D-02.
    207 vectors produced by pass  4 Test12= 1.34D-13 1.00D-09 XBig12= 1.97D-04 1.17D-03.
    207 vectors produced by pass  5 Test12= 1.34D-13 1.00D-09 XBig12= 9.03D-07 4.80D-05.
    167 vectors produced by pass  6 Test12= 1.34D-13 1.00D-09 XBig12= 3.24D-09 4.15D-06.
     48 vectors produced by pass  7 Test12= 1.34D-13 1.00D-09 XBig12= 1.00D-11 2.57D-07.
      3 vectors produced by pass  8 Test12= 1.34D-13 1.00D-09 XBig12= 3.06D-14 1.40D-08.
      1 vectors produced by pass  9 Test12= 1.34D-13 1.00D-09 XBig12= 1.96D-16 1.00D-09.
 InvSVY:  IOpt=1 It=  1 EMax= 2.49D-14
 Solved reduced A of dimension  1464 with   210 vectors.
 FullF1:  Do perturbations      1 to       3.
 Isotropic polarizability for W=    0.000000      460.53 Bohr**3.
 End of Minotr F.D. properties file   721 does not exist.
 End of Minotr F.D. properties file   722 does not exist.
 End of Minotr F.D. properties file   788 does not exist.
 Leave Link 1002 at Tue Mar  4 20:36:34 2025, MaxMem= 82678120448 cpu:          122867.0 elap:           12737.4
 (Enter /sysapps/ubuntu-applications/gaussian-new/avx/g16/l601.exe)
 Copying SCF densities to generalized density rwf, IOpCl= 0 IROHF=0.

 **********************************************************************

            Population analysis using the SCF density.

 **********************************************************************

 Orbital symmetries:
       Occupied  (A) (A) (A) (A) (A) (A) (A) (A) (A) (A) (A) (A)
                 (A) (A) (A) (A) (A) (A) (A) (A) (A) (A) (A) (A)
                 (A) (A) (A) (A) (A) (A) (A) (A) (A) (A) (A) (A)
                 (A) (A) (A) (A) (A) (A) (A) (A) (A) (A) (A) (A)
                 (A) (A) (A) (A) (A) (A) (A) (A) (A) (A) (A) (A)
                 (A) (A) (A) (A) (A) (A) (A) (A) (A) (A) (A) (A)
                 (A) (A) (A) (A) (A) (A) (A) (A) (A) (A) (A) (A)
                 (A) (A) (A) (A) (A) (A) (A) (A) (A) (A) (A) (A)
                 (A) (A) (A) (A) (A) (A) (A) (A) (A) (A) (A) (A)
                 (A) (A) (A) (A) (A) (A) (A) (A) (A) (A) (A) (A)
                 (A) (A) (A) (A) (A) (A) (A) (A) (A) (A) (A) (A)
                 (A) (A) (A) (A) (A) (A) (A) (A) (A) (A) (A) (A)
                 (A) (A) (A) (A) (A) (A) (A) (A) (A) (A) (A) (A)
                 (A) (A) (A) (A) (A) (A) (A) (A) (A) (A) (A) (A)
                 (A) (A) (A) (A) (A) (A) (A) (A) (A) (A) (A) (A)
                 (A) (A) (A) (A) (A) (A) (A) (A) (A) (A) (A) (A)
                 (A) (A) (A) (A) (A) (A) (A) (A) (A) (A) (A) (A)
                 (A) (A) (A) (A) (A) (A) (A)
       Virtual   (A) (A) (A) (A) (A) (A) (A) (A) (A) (A) (A) (A)
                 (A) (A) (A) (A) (A) (A) (A) (A) (A) (A) (A) (A)
                 (A) (A) (A) (A) (A) (A) (A) (A) (A) (A) (A) (A)
                 (A) (A) (A) (A) (A) (A) (A) (A) (A) (A) (A) (A)
                 (A) (A) (A) (A) (A) (A) (A) (A) (A) (A) (A) (A)
                 (A) (A) (A) (A) (A) (A) (A) (A) (A) (A) (A) (A)
                 (A) (A) (A) (A) (A) (A) (A) (A) (A) (A) (A) (A)
                 (A) (A) (A) (A) (A) (A) (A) (A) (A) (A) (A) (A)
                 (A) (A) (A) (A) (A) (A) (A) (A) (A) (A) (A) (A)
                 (A) (A) (A) (A) (A) (A) (A) (A) (A) (A) (A) (A)
                 (A) (A) (A) (A) (A) (A) (A) (A) (A) (A) (A) (A)
                 (A) (A) (A) (A) (A) (A) (A) (A) (A) (A) (A) (A)
                 (A) (A) (A) (A) (A) (A) (A) (A) (A) (A) (A) (A)
                 (A) (A) (A) (A) (A) (A) (A) (A) (A) (A) (A) (A)
                 (A) (A) (A) (A) (A) (A) (A) (A) (A) (A) (A) (A)
                 (A) (A) (A) (A) (A) (A) (A) (A) (A) (A) (A) (A)
                 (A) (A) (A) (A) (A) (A) (A) (A) (A) (A) (A) (A)
                 (A) (A) (A) (A) (A) (A) (A) (A) (A) (A) (A) (A)
                 (A) (A) (A) (A) (A) (A) (A) (A) (A) (A) (A) (A)
                 (A) (A) (A) (A) (A) (A) (A) (A) (A) (A) (A) (A)
                 (A) (A) (A) (A) (A) (A) (A) (A) (A) (A) (A) (A)
                 (A) (A) (A) (A) (A) (A) (A) (A) (A) (A) (A) (A)
                 (A) (A) (A) (A) (A) (A) (A) (A) (A) (A) (A) (A)
                 (A) (A) (A) (A) (A) (A) (A) (A) (A) (A) (A) (A)
                 (A) (A) (A) (A) (A) (A) (A) (A) (A) (A) (A) (A)
                 (A) (A) (A) (A) (A) (A) (A) (A) (A) (A) (A) (A)
                 (A) (A) (A) (A) (A) (A) (A) (A) (A) (A) (A) (A)
                 (A) (A) (A) (A) (A) (A) (A) (A) (A) (A) (A) (A)
                 (A) (A) (A) (A) (A) (A) (A) (A) (A) (A) (A) (A)
                 (A) (A) (A) (A) (A) (A) (A) (A) (A) (A) (A) (A)
                 (A) (A) (A) (A) (A) (A) (A) (A) (A) (A) (A) (A)
                 (A) (A) (A) (A) (A) (A) (A) (A) (A) (A) (A) (A)
                 (A) (A) (A) (A) (A) (A) (A) (A) (A) (A) (A) (A)
                 (A) (A) (A) (A) (A) (A) (A) (A) (A) (A) (A) (A)
                 (A) (A) (A) (A) (A) (A) (A) (A) (A) (A) (A) (A)
                 (A) (A) (A) (A) (A) (A) (A) (A) (A) (A) (A) (A)
                 (A) (A) (A) (A) (A) (A) (A) (A) (A) (A) (A) (A)
                 (A) (A) (A) (A) (A) (A) (A) (A) (A) (A) (A) (A)
                 (A) (A) (A) (A) (A) (A) (A) (A) (A) (A) (A) (A)
                 (A) (A) (A) (A) (A) (A) (A) (A) (A) (A) (A) (A)
                 (A) (A) (A) (A) (A) (A) (A) (A) (A) (A) (A) (A)
                 (A) (A) (A) (A) (A) (A) (A) (A) (A) (A) (A) (A)
                 (A) (A) (A) (A) (A) (A) (A) (A) (A) (A) (A) (A)
                 (A) (A) (A) (A) (A) (A) (A) (A) (A) (A) (A) (A)
                 (A) (A) (A) (A) (A) (A) (A) (A) (A) (A) (A) (A)
                 (A) (A) (A) (A) (A) (A) (A) (A) (A) (A) (A) (A)
                 (A) (A) (A) (A) (A) (A) (A) (A) (A) (A) (A) (A)
                 (A) (A) (A) (A) (A) (A) (A) (A) (A) (A) (A) (A)
                 (A) (A) (A) (A) (A) (A) (A) (A) (A) (A) (A) (A)
                 (A) (A) (A) (A) (A) (A) (A) (A) (A) (A) (A) (A)
                 (A) (A) (A) (A) (A) (A) (A) (A) (A) (A) (A) (A)
                 (A) (A) (A) (A) (A) (A) (A) (A) (A) (A) (A) (A)
                 (A) (A) (A) (A) (A) (A) (A) (A) (A) (A) (A) (A)
 The electronic state is 1-A.
 Alpha  occ. eigenvalues -- -160.21944 -88.06916 -88.06388 -88.06131 -24.34672
 Alpha  occ. eigenvalues --  -24.34653 -24.34541 -24.34484 -24.34469 -24.34337
 Alpha  occ. eigenvalues --  -24.33909 -24.33833 -24.33798 -18.87994 -18.87646
 Alpha  occ. eigenvalues --  -18.85560 -18.85487 -18.84978 -18.84960 -18.84587
 Alpha  occ. eigenvalues --  -18.84554 -18.84447 -18.83659 -18.83657 -17.20498
 Alpha  occ. eigenvalues --  -14.50633 -14.50613 -14.50584 -14.19262 -14.16233
 Alpha  occ. eigenvalues --  -14.14176 -14.13233 -10.34122 -10.33891 -10.33661
 Alpha  occ. eigenvalues --  -10.21074 -10.20939 -10.20012 -10.15243 -10.13249
 Alpha  occ. eigenvalues --  -10.12776 -10.12727 -10.10637 -10.10185 -10.09493
 Alpha  occ. eigenvalues --  -10.08773 -10.07902 -10.07719 -10.07379 -10.07333
 Alpha  occ. eigenvalues --  -10.06521 -10.06358 -10.06071 -10.06027 -10.05998
 Alpha  occ. eigenvalues --   -7.96756  -7.96169  -7.95975  -6.16276  -6.16228
 Alpha  occ. eigenvalues --   -6.16087  -6.15695  -6.15636  -6.15527  -6.15501
 Alpha  occ. eigenvalues --   -6.15440  -6.15312  -2.16789  -1.41453  -1.41315
 Alpha  occ. eigenvalues --   -1.41083  -1.38355  -1.38287  -1.37751  -1.28345
 Alpha  occ. eigenvalues --   -1.28343  -1.28252  -1.28211  -1.27711  -1.27602
 Alpha  occ. eigenvalues --   -1.21320  -1.20474  -1.20223  -1.14542  -1.12846
 Alpha  occ. eigenvalues --   -1.10112  -1.08491  -1.07474  -1.07303  -1.06122
 Alpha  occ. eigenvalues --   -1.05505  -1.05328  -0.98622  -0.96353  -0.94686
 Alpha  occ. eigenvalues --   -0.91201  -0.90721  -0.87050  -0.84719  -0.82135
 Alpha  occ. eigenvalues --   -0.80814  -0.80670  -0.80278  -0.79718  -0.78842
 Alpha  occ. eigenvalues --   -0.78549  -0.76268  -0.73658  -0.72713  -0.72476
 Alpha  occ. eigenvalues --   -0.71988  -0.71604  -0.68644  -0.68277  -0.68252
 Alpha  occ. eigenvalues --   -0.68217  -0.68124  -0.67647  -0.67625  -0.65903
 Alpha  occ. eigenvalues --   -0.65012  -0.64108  -0.63992  -0.63281  -0.62848
 Alpha  occ. eigenvalues --   -0.62520  -0.61720  -0.61489  -0.59946  -0.58733
 Alpha  occ. eigenvalues --   -0.58368  -0.58162  -0.57142  -0.56706  -0.56502
 Alpha  occ. eigenvalues --   -0.56125  -0.55998  -0.55732  -0.55530  -0.55400
 Alpha  occ. eigenvalues --   -0.55212  -0.55173  -0.54997  -0.54540  -0.54350
 Alpha  occ. eigenvalues --   -0.54229  -0.53759  -0.53593  -0.53563  -0.53155
 Alpha  occ. eigenvalues --   -0.52512  -0.52390  -0.52159  -0.52052  -0.52012
 Alpha  occ. eigenvalues --   -0.51779  -0.51549  -0.51217  -0.51095  -0.50670
 Alpha  occ. eigenvalues --   -0.50054  -0.49550  -0.49459  -0.48938  -0.48910
 Alpha  occ. eigenvalues --   -0.48577  -0.48021  -0.47695  -0.46951  -0.46562
 Alpha  occ. eigenvalues --   -0.46187  -0.46123  -0.45896  -0.45411  -0.45024
 Alpha  occ. eigenvalues --   -0.44597  -0.44495  -0.44229  -0.43906  -0.43548
 Alpha  occ. eigenvalues --   -0.43237  -0.42908  -0.42683  -0.42474  -0.42062
 Alpha  occ. eigenvalues --   -0.41838  -0.41494  -0.41462  -0.40838  -0.40715
 Alpha  occ. eigenvalues --   -0.40291  -0.40013  -0.39897  -0.39798  -0.39741
 Alpha  occ. eigenvalues --   -0.39179  -0.38909  -0.38396  -0.38169  -0.37957
 Alpha  occ. eigenvalues --   -0.37768  -0.37544  -0.37226  -0.36781  -0.36431
 Alpha  occ. eigenvalues --   -0.35782  -0.34783  -0.34004  -0.29712  -0.29660
 Alpha  occ. eigenvalues --   -0.26458
 Alpha virt. eigenvalues --   -0.06269  -0.05756  -0.03969  -0.02160  -0.01161
 Alpha virt. eigenvalues --   -0.00587   0.00359   0.00767   0.01255   0.01321
 Alpha virt. eigenvalues --    0.01612   0.03885   0.05137   0.06326   0.06946
 Alpha virt. eigenvalues --    0.07786   0.08255   0.08662   0.08753   0.08904
 Alpha virt. eigenvalues --    0.08927   0.09343   0.09652   0.09961   0.10032
 Alpha virt. eigenvalues --    0.10598   0.10916   0.10937   0.11796   0.12211
 Alpha virt. eigenvalues --    0.12280   0.12885   0.13597   0.14039   0.14302
 Alpha virt. eigenvalues --    0.14628   0.15005   0.15242   0.15979   0.16512
 Alpha virt. eigenvalues --    0.16912   0.17077   0.17347   0.17455   0.18165
 Alpha virt. eigenvalues --    0.18587   0.18942   0.19254   0.19927   0.20266
 Alpha virt. eigenvalues --    0.20617   0.20919   0.21511   0.21830   0.22141
 Alpha virt. eigenvalues --    0.22655   0.23045   0.23309   0.23892   0.24224
 Alpha virt. eigenvalues --    0.24654   0.24943   0.24979   0.25462   0.25591
 Alpha virt. eigenvalues --    0.25961   0.26156   0.26819   0.27098   0.27442
 Alpha virt. eigenvalues --    0.27703   0.28397   0.28448   0.29033   0.29164
 Alpha virt. eigenvalues --    0.30282   0.30859   0.31146   0.31281   0.31614
 Alpha virt. eigenvalues --    0.32239   0.32637   0.33156   0.35082   0.35476
 Alpha virt. eigenvalues --    0.36287   0.37060   0.38136   0.38250   0.39623
 Alpha virt. eigenvalues --    0.40212   0.40683   0.41024   0.41223   0.42176
 Alpha virt. eigenvalues --    0.43078   0.43379   0.43672   0.44098   0.44613
 Alpha virt. eigenvalues --    0.44720   0.45137   0.45677   0.46013   0.46725
 Alpha virt. eigenvalues --    0.46877   0.47291   0.47705   0.48105   0.48476
 Alpha virt. eigenvalues --    0.48650   0.48961   0.49156   0.49731   0.50477
 Alpha virt. eigenvalues --    0.50678   0.51085   0.51479   0.51908   0.52112
 Alpha virt. eigenvalues --    0.52246   0.52957   0.53124   0.54069   0.54268
 Alpha virt. eigenvalues --    0.54679   0.54982   0.55236   0.56263   0.56820
 Alpha virt. eigenvalues --    0.56926   0.57229   0.57764   0.57989   0.58741
 Alpha virt. eigenvalues --    0.59221   0.59347   0.60215   0.60823   0.61089
 Alpha virt. eigenvalues --    0.61284   0.61642   0.62712   0.62993   0.63509
 Alpha virt. eigenvalues --    0.63899   0.64139   0.64469   0.64814   0.65208
 Alpha virt. eigenvalues --    0.65638   0.65835   0.66423   0.66607   0.66898
 Alpha virt. eigenvalues --    0.67012   0.67667   0.67887   0.68240   0.68456
 Alpha virt. eigenvalues --    0.68507   0.68909   0.69198   0.69628   0.69757
 Alpha virt. eigenvalues --    0.70079   0.70378   0.70901   0.70965   0.71327
 Alpha virt. eigenvalues --    0.71592   0.72088   0.72392   0.72525   0.72893
 Alpha virt. eigenvalues --    0.73215   0.73556   0.74103   0.74188   0.74390
 Alpha virt. eigenvalues --    0.74645   0.75094   0.75358   0.76409   0.76645
 Alpha virt. eigenvalues --    0.77220   0.77340   0.77970   0.78549   0.79383
 Alpha virt. eigenvalues --    0.79809   0.80072   0.80470   0.81519   0.81859
 Alpha virt. eigenvalues --    0.82891   0.83647   0.84584   0.85076   0.85312
 Alpha virt. eigenvalues --    0.85823   0.86399   0.86666   0.87662   0.87817
 Alpha virt. eigenvalues --    0.88117   0.88433   0.89060   0.89469   0.89842
 Alpha virt. eigenvalues --    0.90088   0.90612   0.91571   0.92781   0.93236
 Alpha virt. eigenvalues --    0.93539   0.94865   0.94949   0.95336   0.95830
 Alpha virt. eigenvalues --    0.96404   0.97269   0.97697   0.98359   0.98813
 Alpha virt. eigenvalues --    0.99188   0.99430   0.99776   0.99825   1.00435
 Alpha virt. eigenvalues --    1.01303   1.02284   1.03186   1.03368   1.04191
 Alpha virt. eigenvalues --    1.04915   1.05430   1.05727   1.05943   1.06615
 Alpha virt. eigenvalues --    1.06904   1.08083   1.08432   1.08490   1.08770
 Alpha virt. eigenvalues --    1.09406   1.09877   1.10175   1.10181   1.10947
 Alpha virt. eigenvalues --    1.11477   1.11805   1.12201   1.12664   1.13068
 Alpha virt. eigenvalues --    1.13547   1.14509   1.14971   1.15254   1.15555
 Alpha virt. eigenvalues --    1.16253   1.17075   1.17132   1.17884   1.18291
 Alpha virt. eigenvalues --    1.18702   1.18888   1.19401   1.19680   1.19846
 Alpha virt. eigenvalues --    1.20885   1.21026   1.21460   1.21927   1.22104
 Alpha virt. eigenvalues --    1.22731   1.22923   1.23682   1.24079   1.24608
 Alpha virt. eigenvalues --    1.24947   1.25289   1.25366   1.26009   1.26635
 Alpha virt. eigenvalues --    1.27201   1.27609   1.28730   1.29190   1.29681
 Alpha virt. eigenvalues --    1.30011   1.30557   1.30759   1.31497   1.31955
 Alpha virt. eigenvalues --    1.32397   1.32834   1.32981   1.33583   1.33800
 Alpha virt. eigenvalues --    1.34242   1.35166   1.35588   1.36139   1.36179
 Alpha virt. eigenvalues --    1.37025   1.37831   1.38280   1.39170   1.39337
 Alpha virt. eigenvalues --    1.40199   1.40317   1.40881   1.41112   1.42110
 Alpha virt. eigenvalues --    1.42465   1.42525   1.43630   1.44068   1.44448
 Alpha virt. eigenvalues --    1.45123   1.45809   1.46063   1.46982   1.48094
 Alpha virt. eigenvalues --    1.48570   1.48919   1.50035   1.50292   1.50956
 Alpha virt. eigenvalues --    1.52227   1.52354   1.52814   1.53206   1.53247
 Alpha virt. eigenvalues --    1.54541   1.54963   1.55347   1.56190   1.57092
 Alpha virt. eigenvalues --    1.57217   1.57691   1.58052   1.58659   1.58913
 Alpha virt. eigenvalues --    1.59410   1.59658   1.60419   1.61713   1.62171
 Alpha virt. eigenvalues --    1.62714   1.63069   1.63797   1.64186   1.64448
 Alpha virt. eigenvalues --    1.64726   1.66061   1.66941   1.67611   1.68374
 Alpha virt. eigenvalues --    1.68461   1.68956   1.69238   1.69486   1.70539
 Alpha virt. eigenvalues --    1.71331   1.71746   1.71991   1.72963   1.73480
 Alpha virt. eigenvalues --    1.73790   1.73949   1.74486   1.74601   1.75134
 Alpha virt. eigenvalues --    1.75535   1.75900   1.76557   1.76738   1.76986
 Alpha virt. eigenvalues --    1.78016   1.78430   1.79167   1.79971   1.80153
 Alpha virt. eigenvalues --    1.80484   1.81750   1.82346   1.83075   1.83356
 Alpha virt. eigenvalues --    1.83917   1.84204   1.84544   1.85173   1.85619
 Alpha virt. eigenvalues --    1.85926   1.86367   1.86476   1.86912   1.87347
 Alpha virt. eigenvalues --    1.87809   1.88521   1.88566   1.90075   1.90095
 Alpha virt. eigenvalues --    1.90288   1.90587   1.91226   1.91694   1.92215
 Alpha virt. eigenvalues --    1.92975   1.93011   1.94053   1.94147   1.94948
 Alpha virt. eigenvalues --    1.95549   1.95933   1.96071   1.96628   1.97145
 Alpha virt. eigenvalues --    1.97234   1.98376   1.98684   1.98875   1.99338
 Alpha virt. eigenvalues --    1.99839   1.99895   2.00256   2.00511   2.01416
 Alpha virt. eigenvalues --    2.01801   2.02949   2.03364   2.03608   2.04155
 Alpha virt. eigenvalues --    2.04262   2.05607   2.06645   2.06831   2.07722
 Alpha virt. eigenvalues --    2.08437   2.09268   2.10171   2.11272   2.12108
 Alpha virt. eigenvalues --    2.12781   2.13527   2.13912   2.14447   2.15110
 Alpha virt. eigenvalues --    2.15920   2.16015   2.17382   2.18402   2.20041
 Alpha virt. eigenvalues --    2.21904   2.22627   2.22961   2.23419   2.23652
 Alpha virt. eigenvalues --    2.24327   2.24469   2.25573   2.26261   2.27618
 Alpha virt. eigenvalues --    2.27968   2.29047   2.30181   2.30820   2.31679
 Alpha virt. eigenvalues --    2.32709   2.33131   2.34868   2.35444   2.36340
 Alpha virt. eigenvalues --    2.37801   2.39346   2.39981   2.40584   2.41751
 Alpha virt. eigenvalues --    2.42491   2.44831   2.45089   2.46426   2.46777
 Alpha virt. eigenvalues --    2.48888   2.50201   2.52007   2.53459   2.53921
 Alpha virt. eigenvalues --    2.54733   2.54906   2.56514   2.56663   2.57758
 Alpha virt. eigenvalues --    2.57832   2.59160   2.59551   2.59948   2.60389
 Alpha virt. eigenvalues --    2.60606   2.61337   2.61678   2.61910   2.62064
 Alpha virt. eigenvalues --    2.62808   2.64229   2.64521   2.65177   2.66131
 Alpha virt. eigenvalues --    2.66756   2.67443   2.67907   2.68753   2.68808
 Alpha virt. eigenvalues --    2.69205   2.69899   2.70174   2.71055   2.71437
 Alpha virt. eigenvalues --    2.71803   2.72187   2.72770   2.73652   2.74302
 Alpha virt. eigenvalues --    2.75147   2.75970   2.76367   2.78908   2.79160
 Alpha virt. eigenvalues --    2.79691   2.79739   2.80113   2.81023   2.81475
 Alpha virt. eigenvalues --    2.81984   2.82351   2.83038   2.83519   2.84129
 Alpha virt. eigenvalues --    2.84667   2.86215   2.86768   2.87289   2.88130
 Alpha virt. eigenvalues --    2.89256   2.89874   2.90586   2.91313   2.91537
 Alpha virt. eigenvalues --    2.92046   2.92371   2.93608   2.94039   2.94254
 Alpha virt. eigenvalues --    2.95238   2.95854   2.96129   2.96967   2.97746
 Alpha virt. eigenvalues --    2.98274   2.98403   2.98666   2.99590   3.00458
 Alpha virt. eigenvalues --    3.00635   3.01094   3.02202   3.02300   3.02410
 Alpha virt. eigenvalues --    3.02541   3.02567   3.02597   3.02708   3.02828
 Alpha virt. eigenvalues --    3.02952   3.03030   3.03227   3.03321   3.03479
 Alpha virt. eigenvalues --    3.03900   3.04018   3.04249   3.04657   3.05237
 Alpha virt. eigenvalues --    3.05675   3.06152   3.07142   3.07217   3.07822
 Alpha virt. eigenvalues --    3.10317   3.11914   3.14608   3.14796   3.15490
 Alpha virt. eigenvalues --    3.15732   3.15862   3.15999   3.16151   3.16737
 Alpha virt. eigenvalues --    3.19987   3.20951   3.22286   3.28390   3.30970
 Alpha virt. eigenvalues --    3.32746   3.33804   3.34795   3.35251   3.36480
 Alpha virt. eigenvalues --    3.36861   3.36927   3.37993   3.38037   3.38598
 Alpha virt. eigenvalues --    3.39265   3.44033   3.48738   3.51076   3.51496
 Alpha virt. eigenvalues --    3.52001   3.52650   3.52779   3.53259   3.54654
 Alpha virt. eigenvalues --    3.58966   3.59873   3.66598   3.67882   3.68561
 Alpha virt. eigenvalues --    3.80988   3.81193   3.82477   3.82720   3.83041
 Alpha virt. eigenvalues --    3.83914
          Condensed to atoms (all electrons):
 Mulliken charges:
               1
     1  C    0.022164
     2  C   -0.017080
     3  C   -0.000375
     4  C    0.014199
     5  C    0.004128
     6  C   -0.012556
     7  C   -0.257587
     8  C    0.080757
     9  C    0.091835
    10  H    0.005425
    11  H    0.011661
    12  H    0.015188
    13  H    0.012700
    14  H    0.004680
    15  O   -0.217892
    16  O   -0.187460
    17  O   -0.434026
    18  O   -0.440018
    19  O   -0.446478
    20  S    0.891738
    21  S    0.863126
    22  S    0.868826
    23  O   -0.443765
    24  O   -0.392694
    25  O   -0.431723
    26  O   -0.380822
    27  O   -0.431211
    28  O   -0.398109
    29  C    0.446637
    30  C    0.449516
    31  C    0.425469
    32  F   -0.114701
    33  F   -0.112782
    34  F   -0.121948
    35  F   -0.102364
    36  F   -0.116635
    37  F   -0.117027
    38  F   -0.124214
    39  F   -0.112718
    40  F   -0.115734
    41  C    0.045650
    42  H    0.032249
    43  C   -0.115877
    44  C   -0.167553
    45  C   -0.167101
    46  C    0.015107
    47  C   -0.011514
    48  C    0.022736
    49  H    0.057951
    50  H    0.051354
    51  H    0.039183
    52  N    0.142646
    53  N    0.099693
    54  N   -0.196998
    55  N   -0.010398
    56  C    0.141711
    57  H    0.077743
    58  Sc   0.294934
    59  C    0.185928
    60  H    0.055742
    61  H    0.015563
    62  C    0.133948
    63  H    0.108536
    64  H    0.052627
    65  H    0.075075
    66  C    0.116674
    67  H    0.060630
    68  H    0.089738
    69  H    0.075889
 Sum of Mulliken charges =  -0.00000
 Mulliken charges with hydrogens summed into heavy atoms:
               1
     1  C    0.022164
     2  C   -0.011655
     3  C    0.011286
     4  C    0.029387
     5  C    0.016828
     6  C   -0.007875
     7  C   -0.257587
     8  C    0.080757
     9  C    0.091835
    15  O   -0.217892
    16  O   -0.187460
    17  O   -0.434026
    18  O   -0.440018
    19  O   -0.446478
    20  S    0.891738
    21  S    0.863126
    22  S    0.868826
    23  O   -0.443765
    24  O   -0.392694
    25  O   -0.431723
    26  O   -0.380822
    27  O   -0.431211
    28  O   -0.398109
    29  C    0.446637
    30  C    0.449516
    31  C    0.425469
    32  F   -0.114701
    33  F   -0.112782
    34  F   -0.121948
    35  F   -0.102364
    36  F   -0.116635
    37  F   -0.117027
    38  F   -0.124214
    39  F   -0.112718
    40  F   -0.115734
    41  C    0.077899
    43  C   -0.115877
    44  C   -0.167553
    45  C   -0.167101
    46  C    0.073058
    47  C    0.039840
    48  C    0.061919
    52  N    0.142646
    53  N    0.099693
    54  N   -0.196998
    55  N   -0.010398
    56  C    0.219454
    58  Sc   0.294934
    59  C    0.257234
    62  C    0.370185
    66  C    0.342931
 APT charges:
               1
     1  C    0.009314
     2  C   -0.093254
     3  C   -0.041542
     4  C   -0.032427
     5  C   -0.042173
     6  C   -0.067744
     7  C   -0.614860
     8  C    1.191437
     9  C    1.352005
    10  H    0.070184
    11  H    0.047966
    12  H    0.049674
    13  H    0.048345
    14  H    0.056703
    15  O   -1.296624
    16  O   -1.218119
    17  O   -1.223255
    18  O   -1.250724
    19  O   -1.211725
    20  S    2.541673
    21  S    2.538405
    22  S    2.498528
    23  O   -1.239504
    24  O   -0.972375
    25  O   -1.222946
    26  O   -0.967349
    27  O   -1.234529
    28  O   -0.959183
    29  C    1.936803
    30  C    1.877849
    31  C    1.848853
    32  F   -0.639059
    33  F   -0.661843
    34  F   -0.702113
    35  F   -0.641966
    36  F   -0.661675
    37  F   -0.659477
    38  F   -0.659356
    39  F   -0.635179
    40  F   -0.677970
    41  C    0.095691
    42  H    0.026801
    43  C    0.806022
    44  C    0.152846
    45  C    0.058778
    46  C   -0.118308
    47  C    0.068231
    48  C    0.001879
    49  H    0.135207
    50  H    0.064510
    51  H    0.087793
    52  N   -0.365336
    53  N   -0.352203
    54  N   -0.800863
    55  N   -0.110862
    56  C    0.564918
    57  H    0.019987
    58  Sc   3.122952
    59  C    0.050705
    60  H    0.043410
    61  H    0.062384
    62  C   -0.326540
    63  H    0.113553
    64  H    0.108771
    65  H    0.070029
    66  C   -0.325148
    67  H    0.115497
    68  H    0.114553
    69  H    0.073972
 Sum of APT charges =   0.00000
 APT charges with hydrogens summed into heavy atoms:
               1
     1  C    0.009314
     2  C   -0.023070
     3  C    0.006424
     4  C    0.017247
     5  C    0.006172
     6  C   -0.011041
     7  C   -0.614860
     8  C    1.191437
     9  C    1.352005
    15  O   -1.296624
    16  O   -1.218119
    17  O   -1.223255
    18  O   -1.250724
    19  O   -1.211725
    20  S    2.541673
    21  S    2.538405
    22  S    2.498528
    23  O   -1.239504
    24  O   -0.972375
    25  O   -1.222946
    26  O   -0.967349
    27  O   -1.234529
    28  O   -0.959183
    29  C    1.936803
    30  C    1.877849
    31  C    1.848853
    32  F   -0.639059
    33  F   -0.661843
    34  F   -0.702113
    35  F   -0.641966
    36  F   -0.661675
    37  F   -0.659477
    38  F   -0.659356
    39  F   -0.635179
    40  F   -0.677970
    41  C    0.122492
    43  C    0.806022
    44  C    0.152846
    45  C    0.058778
    46  C    0.016899
    47  C    0.132741
    48  C    0.089671
    52  N   -0.365336
    53  N   -0.352203
    54  N   -0.800863
    55  N   -0.110862
    56  C    0.584906
    58  Sc   3.122952
    59  C    0.156500
    62  C   -0.034187
    66  C   -0.021126
 Electronic spatial extent (au):  <R**2>=          32768.2297
 Charge=              0.0000 electrons
 Dipole moment (field-independent basis, Debye):
    X=             10.1982    Y=              1.5773    Z=             -0.6468  Tot=             10.3397
 Quadrupole moment (field-independent basis, Debye-Ang):
   XX=           -349.1078   YY=           -331.6710   ZZ=           -323.6316
   XY=            -30.5090   XZ=             -5.8496   YZ=             -1.2937
[...]
 -0.00035649,0.00040782,0.00002394,0.00001451,0.00012195,0.00010294,0.0
 0007988,-0.00001933,0.00005623,-0.00002245,-0.00004491,-0.00000546,-0.
 00000617,0.00000622,-0.00000212,0.00001571,0.00000912,0.00000304,0.000
 00509,-0.00001316,-0.15083532,-0.18710187,-0.01935528,0.15852466,0.203
 89022,-0.00008585,-0.00002249,-0.00007257,0.00002493,-0.00000774,0.000
 00182,0.00001167,0.00000097,-0.00000346,0.00000334,-0.00000851,0.00000
 940,0.00000364,0.00000762,-0.00001799,0.00002219,-0.00003498,0.0000444
 6,-0.00140707,-0.00251006,0.00063056,0.01387344,0.02212230,0.00977235,
 0.00085507,-0.00019974,0.00032086,-0.00000378,0.00000670,-0.00000745,0
 .00000303,-0.00000290,0.00000126,0.00000128,-0.00000083,-0.00000102,0.
 00000729,-0.00000470,-0.00000015,-0.00000491,-0.00000273,-0.00000485,-
 0.00060101,0.00003961,-0.00029903,0.00688687,-0.00173304,-0.00434579,0
 .00009870,0.00001587,-0.00011286,0.00015619,-0.00010494,0.00007364,0.0
 0000192,0.00022947,0.00000458,0.00006420,-0.00039622,-0.00013158,-0.00
 011668,-0.00002840,0.00014426,-0.00028367,0.00022721,-0.00029179,-0.00
 001395,0.00025403,0.00005631,-0.00001790,0.00008921,0.00003068,0.00009
 256,0.00006778,-0.00013382,0.00002578,0.00000576,-0.00005905,0.0003423
 1,-0.00030975,0.00000391,0.00001813,-0.00006584,0.00007947,-0.00010207
 ,0.00005235,0.00006696,-0.00005892,-0.00002711,-0.00000545,0.00001030,
 0.00024664,-0.00033039,0.00002272,-0.00002318,-0.00003147,0.00004462,0
 .00000623,-0.00001433,0.00005448,-0.00004409,0.00001020,0.00001653,0.0
 0000770,-0.00000294,0.00002898,-0.00000497,0.00000050,0.00001796,0.000
 02539,-0.00000079,-0.00000743,-0.00001694,0.00005687,-0.00023080,-0.00
 043467,0.00024140,-0.00001699,-0.00006191,0.00005002,-0.00083387,0.000
 08414,-0.00060243,-0.00255934,0.00183686,-0.00201037,-0.00061946,0.000
 17561,-0.00034787,-0.00005587,0.00003464,0.00002242,0.00004015,-0.0000
 3434,-0.00000223,0.00000739,0.00003775,0.00007497,0.00007325,-0.000793
 66,0.00001996,0.00013854,-0.00026824,-0.00012088,0.00002406,0.00006826
 ,0.00006292,0.00001853,0.00019343,0.00010265,-0.00004452,0.00003335,0.
 00004592,0.00004917,0.00000839,-0.00003204,-0.00000109,0.00000541,0.00
 005084,-0.00010555,0.00131738,-0.00063702,-0.00100882,-0.00356160,-0.0
 0122108,0.00029677,0.00011168,-0.00175599,-0.00002353,-0.00025064,-0.0
 0000411,-0.00089396,-0.00064861,0.00090672,0.00024774,0.00004802,0.000
 18110,0.00005475,-0.00006609,-0.00000440,-0.00005599,-0.00007170,-0.00
 002741,-0.00016631,0.00004654,0.00008414,-0.00000359,0.00000269,-0.000
 00918,0.00000437,0.00000364,-0.00001938,0.00000755,-0.00001315,0.00004
 271,-0.02351307,-0.01969023,-0.05147980,0.02649722,0.02469742,0.051451
 86,0.00000083,0.00000181,0.00013903,0.00003948,-0.00000042,-0.00002377
 ,0.00001621,-0.00002414,0.00001418,-0.00000247,-0.00001372,0.00001817,
 -0.00001634,0.00002643,0.00001614,0.00003643,0.00000980,-0.00001443,-0
 .00017031,-0.00138649,-0.00018201,-0.01283635,0.01657748,0.00260118,-0
 .00004076,-0.00005658,0.00017193,0.00000083,-0.00000187,0.00000890,0.0
 0000660,-0.00000525,0.00000417,0.00000278,-0.00000445,0.00000326,0.000
 00182,-0.00000031,-0.00000340,-0.00002908,-0.00002401,0.00002823,0.000
 02798,0.00000937,-0.00001885,-0.00032425,-0.00323377,0.00214412,-0.000
 02542,-0.00000126,0.00003955,-0.00000925,-0.00000188,-0.00000355,0.000
 13717,-0.00023729,-0.00012833,-0.00047584,-0.00002371,0.00043811,-0.00
 002060,0.00005543,0.00000513,-0.00001522,0.00000961,-0.00008341,0.0002
 0377,-0.00009927,-0.00011573,0.00012016,0.00010531,-0.00011711,0.00003
 553,-0.00002412,-0.00002203,0.00000708,-0.00000900,-0.00000597,0.00010
 574,-0.00008126,0.00000533,-0.00000814,-0.00001096,0.00001865,-0.00000
 701,0.00000854,0.00000986,-0.00001452,-0.00000119,0.00000839,-0.000903
 76,-0.00123718,0.00012689,0.00000156,-0.00000239,-0.00000042,0.0000038
 0,-0.00000038,-0.00000219,0.00000665,-0.00000722,0.00000164,0.00000442
 ,0.00000009,-0.00000782,0.00000794,-0.00000250,-0.00000225,0.00000153,
 0.00000099,-0.00000227,0.00034711,-0.00032553,0.00019188,-0.00020299,0
 .00040709,-0.00040364,0.00014326,0.00027978,0.00006184,-0.00033739,-0.
 00076216,-0.00170619,-0.00192587,-0.00036230,-0.00106881,-0.00000598,-
 0.00008374,-0.00003149,-0.00000446,-0.00000394,0.00000913,0.00000398,0
 .00001800,-0.00004067,-0.00001568,0.00012639,0.00005343,-0.00014134,-0
 .00008435,-0.00026331,-0.00015705,0.00000268,0.00013047,0.00000495,0.0
 0000373,-0.00000080,0.00000013,-0.00000167,0.00000096,0.00000883,-0.00
 000871,-0.00000740,-0.00000352,0.00000710,0.00000696,-0.00000943,-0.00
 000876,0.00001949,0.00014092,0.00020786,0.00012147,0.00004278,-0.00040
 120,0.00012551,-0.00007435,0.00013102,-0.00060738,-0.00006657,-0.00017
 884,-0.00003041,0.00006355,-0.00009932,0.00004258,-0.00040588,0.000030
 50,-0.00072745,-0.00001675,-0.00003583,0.00005980,-0.00012878,-0.00012
 590,-0.00002715,-0.00003896,0.00001965,0.00001063,0.00000263,-0.000002
 61,0.00000007,0.00000170,-0.00001125,0.00000092,-0.00000229,-0.0000030
 6,0.00000238,-0.09969725,0.12397033,0.01892072,0.01014696,-0.01767259,
 -0.00436828,0.11304495,-0.00009944,0.00010263,0.00011839,0.00007440,-0
 .00008115,0.00001235,-0.00001914,-0.00001159,0.00001280,0.00002354,-0.
 00000818,-0.00001496,0.00001373,-0.00002972,0.00000042,-0.00000925,-0.
 00002106,-0.00001423,0.00072069,-0.00057764,-0.00057609,0.00125978,0.0
 0318975,-0.00168889,-0.00009777,-0.00002861,-0.00021036,-0.00000381,0.
 00002012,-0.00001560,0.00000914,-0.00000693,0.00000518,0.00000596,-0.0
 0000033,0.00000137,0.00000954,-0.00000398,-0.00000058,0.00000441,0.000
 02115,0.00000135,0.00000701,-0.00002138,0.00018904,-0.00391241,-0.0021
 4076,0.00005739,-0.00011582,-0.00002505,0.00011025,-0.00013199,0.00009
 274,-0.00005651,0.00014693,-0.00028518,-0.00009775,-0.00013108,0.00041
 305,0.00026520,0.00009470,0.00007690,-0.00010911,0.00020331,-0.0001947
 8,0.00017138,0.00006517,-0.00025843,-0.00009903,0.00003654,-0.00007235
 ,-0.00005378,-0.00006632,-0.00005189,0.00006519,-0.00002090,-0.0000141
 8,0.00004230,-0.00018737,0.00014501,-0.00002359,-0.00001574,0.00005762
 ,-0.00006101,0.00007970,-0.00003640,-0.00003558,0.00005063,0.00002556,
 0.00001232,-0.00099750,0.00006362,-0.00018257,-0.00001762,0.00001562,0
 .00001972,-0.00003217,-0.00000390,0.00000834,-0.00004130,0.00003327,-0
 .00001057,-0.00001404,-0.00000731,-0.00000323,-0.00002406,0.00000323,-
 0.00000212,-0.00001681,-0.00002399,-0.00000083,0.00047693,-0.00124887,
 0.00054459,-0.00041096,-0.00035892,0.00001527,0.00013338,0.00003062,0.
 00001154,0.00014270,-0.00048636,0.00019605,-0.00080221,-0.00033683,-0.
 00077961,0.00011241,-0.00015604,0.00010797,-0.00002450,-0.00002748,0.0
 0002283,-0.00000578,0.00009619,0.00000204,0.00002046,0.00007298,0.0001
 3507,-0.00022543,-0.00002082,-0.00029626,-0.00016385,0.00004000,0.0001
 1673,-0.00000148,-0.00000242,-0.00001373,0.00000797,0.00000595,-0.0000
 0224,0.00000837,-0.00000591,-0.00001744,0.00002051,0.00001336,-0.00001
 262,0.00000638,-0.00002058,0.00004519,0.00014058,0.00014793,-0.0000766
 7,0.00010432,-0.00050987,0.00011405,-0.00015629,-0.00012241,0.00003363
 ,0.00001261,0.00003242,-0.00000323,0.00091662,0.00017508,-0.00055545,0
 .00052437,0.00026986,0.00078227,-0.00019303,-0.00027420,-0.00009480,0.
 00021785,0.00013827,0.00011334,0.00000926,0.00000517,0.00004145,0.0000
 0173,0.00001298,-0.00000365,0.00000316,-0.00000667,-0.00000013,-0.0000
 0302,0.00000167,0.00000396,0.11824639,-0.24802756,-0.03289995,0.011477
 10,-0.01519949,-0.00335766,-0.12736740,0.26824263,-0.00006353,0.000108
 50,0.00007988,0.00005552,-0.00001868,-0.00003212,0.00000424,-0.0000170
 7,0.00000744,0.00001269,-0.00001236,0.00000886,-0.00000181,0.00000115,
 -0.00001208,0.00002044,-0.00004560,0.00004320,-0.00051907,0.00276011,0
 .00012644,0.00940483,-0.02541545,-0.00237887,0.00014172,0.00053404,-0.
 00017874,-0.00000728,0.00000754,-0.00000194,0.00000806,-0.00000710,0.0
 0000370,0.00000425,-0.00000183,0.00000051,0.00001192,-0.00000651,-0.00
 000077,0.00000527,0.00000665,0.00000627,-0.00027786,-0.00007585,-0.000
 11918,0.00224446,0.00262302,-0.00095830,0.00010547,0.00001523,-0.00011
 237,0.00011189,-0.00010908,0.00004820,-0.00012525,0.00027866,-0.000068
 30,0.00008189,-0.00024415,-0.00008155,-0.00007141,-0.00006998,0.000107
 80,-0.00011703,0.00020489,-0.00012671,-0.00003664,0.00016124,0.0000244
 2,0.00000234,0.00008076,0.00001108,0.00004559,0.00004008,-0.00006626,0
 .00001535,0.00001243,-0.00004183,0.00009688,-0.00009410,0.00002091,-0.
 00000380,-0.00005747,0.00005285,-0.00005555,0.00003198,0.00003041,-0.0
 0004476,-0.00001816,-0.00000414,0.00054372,-0.00020981,0.00036487,0.00
 001120,-0.00001476,-0.00001807,0.00001899,-0.00000165,-0.00000550,0.00
 003019,-0.00002628,0.00000778,0.00001194,0.00000538,-0.00000260,0.0000
 1980,-0.00000355,-0.00000016,0.00001349,0.00001937,-0.00000086,-0.0002
 9513,0.00040210,-0.00039134,-0.00022351,0.00017258,-0.00008774,-0.0000
 7932,-0.00001816,-0.00006020,-0.00079358,-0.00083858,-0.00158013,-0.00
 162706,-0.00080257,-0.00102825,0.00014456,-0.00008209,0.00006233,-0.00
 004461,0.00001418,0.00004705,-0.00001778,0.00005270,-0.00002388,-0.000
 00580,0.00006644,0.00009349,0.00001224,0.00003598,-0.00003849,-0.00000
 430,0.00006236,-0.00002414,-0.00000591,0.00000011,-0.00000102,-0.00001
 566,-0.00000494,0.00000037,-0.00000524,-0.00001994,-0.00001388,0.00003
 550,0.00000650,-0.00002503,0.00000774,-0.00001761,0.00004538,0.0000832
 6,0.00009064,-0.00001081,-0.00001171,-0.00008319,0.00014152,0.00033803
 ,0.00032893,0.00065183,0.00005917,0.00007680,0.00001795,-0.00073277,0.
 00007010,0.00054178,-0.00093239,-0.00076806,-0.00339094,0.00003998,0.0
 0061449,-0.00051899,-0.00019395,0.00010128,0.00014480,0.00003009,-0.00
 005510,-0.00002296,0.00000926,0.00000871,0.00000628,-0.00001160,0.0000
 0083,-0.00002091,-0.00002560,0.00000418,-0.00001852,0.02211838,-0.0376
 4779,-0.04841490,0.00064441,-0.00152526,-0.00091360,-0.02012393,0.0395
 4696,0.05259579,0.00007168,-0.00008106,-0.00027725,-0.00009339,0.00004
 719,0.00003116,0.00000697,0.00002338,-0.00001942,-0.00000982,0.0000083
 5,-0.00000258,-0.00000136,-0.00000176,-0.00000304,0.00001843,0.0000142
 9,0.00000618,-0.00219424,0.00016278,0.00228232,0.01044120,-0.00462142,
 0.01887073,0.00071796,0.00015222,0.00061920,0.00000395,-0.00001047,-0.
 00000143,-0.00000934,0.00000811,-0.00000334,-0.00000364,0.00000157,-0.
 00000100,-0.00000749,0.00000345,0.00000159,0.00001950,-0.00000993,-0.0
 0001028,-0.00019780,-0.00003001,-0.00015395,0.00137722,0.00030616,-0.0
 0031650,0.00001011,0.00001725,-0.00002226,0.00002851,-0.00003055,-0.00
 002359,-0.00005285,-0.00003972,-0.00003416,0.00010188,-0.00001825,0.00
 006371,0.00000809,0.00000065,-0.00008526,-0.00001076,0.00006050,0.0000
 8016,-0.00003172,0.00006486,-0.00002579,-0.00001668,-0.00000945,-0.000
 00721,0.00000706,-0.00001052,-0.00001893,-0.00000111,0.00000594,0.0000
 5147,-0.00001248,-0.00000639,-0.00003675,0.00001614,-0.00001121,-0.000
 02738,-0.00003057,0.00003278,0.00001038,-0.00003313,-0.00001200,-0.000
 00403,-0.00004101,0.00002618,-0.00006478,0.00000505,-0.00001342,-0.000
 01210,0.00001123,-0.00001029,-0.00000427,0.00000638,-0.00000996,0.0000
 0384,0.00000852,0.00000424,-0.00000034,0.00000240,-0.00000141,0.000001
 83,0.00000464,0.00000215,0.,0.00001160,0.00003301,0.00001806,-0.000145
 87,-0.00035483,0.00003361,0.00000589,-0.00002309,0.00000719,-0.0005356
 0,0.00000359,0.00032804,0.00032083,0.00005917,-0.00059111,0.00002287,0
 .00016563,0.00000179,0.00005092,0.00002178,-0.00000125,-0.00002137,-0.
 00007989,0.00000174,0.00001881,0.00001550,-0.00003577,-0.00001364,0.00
 007128,0.00002646,-0.00005703,0.00001976,-0.00000923,0.00000860,-0.000
 01447,0.00000045,-0.00000013,-0.00003296,-0.00001884,0.00001016,-0.000
 00204,-0.00001254,-0.00002193,-0.00000734,0.00000850,0.00001318,0.0000
 2505,-0.00004037,-0.00002757,-0.00038167,0.00002423,0.00006000,0.00019
 566,-0.00035567,-0.00025038,-0.00027320,0.00021595,0.00001638,0.000074
 74,0.00000295,0.00013995,-0.00001241,0.00025369,-0.00041055,0.00000144
 ,0.00020368,-0.00000106,-0.00002967,0.00001840,0.00005195,-0.00001485,
 -0.00001316,-0.00019405,-0.00010805,0.00011831,-0.00000408,-0.00000526
 ,0.00002606,-0.00000642,0.00001518,-0.00001903,0.00002045,-0.00003801,
 0.00006089,-0.14920492,0.03221989,-0.14272175,-0.00781117,0.00655737,-
 0.01294331,-0.00658624,-0.00007979,-0.01007096,0.15442089,0.00001259,0
 .00000998,-0.00011595,-0.00003074,0.00000652,0.00001570,-0.00000088,0.
 00000929,-0.00001054,-0.00000150,0.00000058,-0.00000505,-0.00000101,-0
 .00000147,0.00000063,-0.00000254,0.00000152,-0.00000944,0.00031254,0.0
 0147308,0.00025178,0.00355487,-0.00174415,-0.00109089,-0.00007998,0.00
 024344,-0.00023409,0.00000357,0.00000096,-0.00000610,-0.00000253,0.000
 00329,-0.00000030,0.00000015,0.00000105,-0.00000002,-0.00000042,0.0000
 0096,0.00000059,-0.00000100,0.00000110,0.00000158,0.00000588,-0.000014
 13,0.00003544,-0.00117105,-0.00118244,-0.00019624,-0.00002059,0.000010
 04,0.00000990,-0.00001423,-0.00005304,-0.00000503,0.00001187,-0.000130
 30,-0.00009312,-0.00011266,0.00011396,0.00024006,0.00002926,-0.0000094
 5,-0.00003696,0.00010253,0.00009374,-0.00001069,0.00005133,-0.00007357
 ,-0.00007160,0.00006620,0.00003498,-0.00008190,-0.00001395,-0.00000187
 ,0.00000253,-0.00000036,-0.00000396,0.00001626,-0.00005832,-0.00002209
 ,0.00001775,-0.00004537,-0.00003051,0.00001778,0.00003319,0.00000632,-
 0.00001304,0.00000592,-0.00000721,0.00000548,0.00017299,-0.00082743,0.
 00048609,-0.00000200,-0.00000306,0.00000850,-0.00001434,-0.00001523,0.
 00000318,-0.00001110,0.00000130,0.00000162,0.00000067,0.00000280,-0.00
 000316,-0.00000484,0.00000206,-0.00000058,-0.00000354,0.00000378,0.000
 00122,-0.00013679,-0.00001229,-0.00013456,0.00003079,0.00027536,-0.000
 37626,0.00001465,0.00019916,-0.00000647,-0.00030977,0.00012389,0.00024
 892,-0.00002611,-0.00011483,-0.00013975,0.00016582,-0.00000648,0.00017
 885,0.00000761,0.00001268,0.00000707,-0.00000061,0.00002788,0.00001078
 ,0.00003981,0.00001977,0.00002953,-0.00002176,0.00012663,0.00012707,0.
 00002104,0.00010146,0.00005087,0.00000175,-0.00001035,-0.00000817,-0.0
 0001314,-0.00004742,-0.00002503,0.00001401,-0.00002045,-0.00001676,-0.
 00000255,-0.00000530,0.00000045,0.00000700,-0.00000118,-0.00001004,-0.
 00015367,-0.00056212,-0.00012266,0.00005345,0.00031015,-0.00043407,-0.
 00018335,-0.00000331,0.00069737,0.00005760,0.00011469,-0.00000085,0.00
 011393,0.00011976,-0.00002566,-0.00018958,-0.00010144,0.00020911,-0.00
 005029,0.00016063,-0.00007216,0.00006524,0.00008355,0.00001896,0.00005
 423,-0.00001505,-0.00002310,0.00000217,0.00000206,0.00000151,-0.000009
 53,0.00000586,-0.00000224,-0.00000968,0.00000098,-0.00001497,0.0297122
 8,-0.05391956,0.04630048,-0.01001013,0.00600612,-0.01730837,0.01202076
 ,-0.00283620,0.01976581,-0.03403577,0.05206450,-0.00004308,-0.00000941
 ,0.00007293,0.00002022,-0.00001888,0.00000076,-0.00000291,-0.00000695,
 0.00000521,-0.00000006,0.00000033,0.00000077,-0.00000191,0.00000191,0.
 00000348,-0.00000462,0.00000911,-0.00000652,0.00386975,0.00040326,-0.0
 0239985,-0.01588753,0.00526043,-0.02377599,-0.00171450,-0.00016882,-0.
 00054684,0.00000331,0.00000021,0.00000415,0.00000126,-0.00000067,0.000
 00030,-0.00000002,0.00000014,0.00000059,-0.00000002,0.00000019,0.00000
 040,0.00000287,-0.00000238,0.00000177,0.00065644,-0.00000970,0.0003480
 3,-0.00265025,-0.00171916,0.00402582,-0.00004187,-0.00000495,0.0000679
 5,-0.00007831,0.00005180,0.00000216,0.00003709,-0.00003458,0.00011726,
 0.00003580,0.00012152,-0.00014025,0.00001961,0.00001444,-0.00000276,0.
 00012351,-0.00008226,-0.00005194,-0.00001976,-0.00007646,0.00003588,-0
 .00001689,-0.00005968,0.00003497,-0.00002247,-0.00000108,0.00005405,-0
 .00000421,-0.00000617,-0.00000508,-0.00002221,0.00001500,0.00004934,-0
 .00003660,0.00000903,0.00000909,0.00005467,-0.00002811,-0.00001615,0.0
 0004331,0.00001317,0.00000389,-0.00010540,0.00042795,-0.00020624,-0.00
 001151,0.00001445,0.00001917,-0.00002083,0.00000234,0.00000609,-0.0000
 1877,0.00001500,-0.00000535,-0.00001049,-0.00000377,0.00000279,-0.0000
 1032,0.00000370,-0.00000013,-0.00000839,-0.00000655,0.00000168,0.00006
 971,-0.00001243,0.00003592,-0.00011927,-0.00048564,0.00014938,-0.00000
 290,-0.00015174,-0.00002151,0.00018743,0.00001704,0.00021789,-0.000174
 94,-0.00001308,-0.00003451,0.00005882,-0.00005904,0.00004331,-0.000008
 77,-0.00000514,-0.00000743,0.00001349,0.00002883,-0.00000295,-0.000029
 99,0.00008586,0.00003306,-0.00005385,-0.00003832,0.00000154,0.00004672
 ,-0.00004424,0.00003693,-0.00000349,0.00000212,-0.00000761,-0.00000423
 ,-0.00000673,0.00000216,0.00000306,-0.00001958,0.00000544,-0.00000383,
 -0.00000215,0.00000520,-0.00000913,-0.00000859,0.00000968,-0.00020021,
 -0.00014837,0.00013497,-0.00000711,0.00005970,-0.00008938,0.00024729,0
 .00050081,0.00001951,-0.00004265,-0.00010610,-0.00000569,0.00018084,-0
 .00001048,-0.00056024,0.00044041,-0.00029548,0.00035253,-0.00002426,0.
 00004732,0.00002979,0.00000317,0.00002943,0.00001876,0.00036801,0.0001
 1704,-0.00016635,-0.00000005,0.00000146,-0.00003867,-0.00000089,-0.000
 02238,0.00004210,-0.00003110,0.00005958,-0.00009653,-0.13596901,0.0460
 4007,-0.22849972,0.00173636,-0.00007102,0.00040886,0.00457936,-0.00155
 608,0.00550289,0.14461608,-0.04805704,0.24476924\\0.00000152,-0.000004
 07,-0.00000585,-0.00000104,0.00000359,-0.00000194,0.00000065,0.0000013
 3,0.00000028,-0.00000010,-0.00000138,-0.00000434,-0.00000103,-0.000006
 86,-0.00000192,-0.00000593,-0.00000548,-0.00000264,-0.00000735,0.00000
 959,0.00000066,0.00000002,0.00000628,0.00000947,0.00001041,-0.00000250
 ,-0.00000705,0.00000087,0.00000298,-0.00000146,0.00000158,0.00000406,0
 .00000021,-0.00000071,-0.00000227,-0.00000127,-0.00000345,-0.00000815,
 -0.00000463,-0.00000327,-0.00000757,-0.00000627,-0.00000598,0.00001503
 ,0.00000967,-0.00000177,-0.00000715,0.,0.00000389,0.00000700,0.0000091
 1,0.00000012,0.00000193,0.00000613,0.00000385,0.00000266,0.00001008,0.
 00000145,-0.00000350,-0.00000204,0.00000327,0.00002268,0.00002102,0.00
 000422,0.00000157,-0.00000084,0.00000074,0.00000009,0.00000670,-0.0000
 0989,0.00000202,0.00002185,0.00000640,0.00000838,0.00001471,0.00000482
 ,0.00001048,0.00000939,0.00000046,0.00000364,-0.00000397,-0.00000389,-
 0.00000434,-0.00000238,0.00000107,-0.00000407,0.00000294,0.00000100,0.
 00000502,0.00001439,-0.00000467,-0.00000654,0.00000753,0.00000183,0.00
 000752,0.00000107,-0.00000089,0.00000502,0.00000348,-0.00000088,-0.000
 00045,0.00000017,0.00000099,-0.00000001,0.00001180,0.00000141,0.000007
 40,0.00001455,-0.00000066,0.00000815,0.00001639,-0.00000625,-0.0000071
 4,0.00000951,-0.00000977,-0.00001080,0.00000629,-0.00000193,0.00000028
 ,0.00001835,0.00000377,0.00000424,-0.00000630,-0.00000074,-0.00000598,
 -0.00000561,0.00000229,-0.00000272,-0.00000933,0.00000314,0.,-0.000013
 42,0.00000598,0.00000879,-0.00000747,0.00000465,0.00000015,-0.00000554
 ,-0.00000308,-0.00000424,-0.00001188,0.00000172,-0.00000292,-0.0000148
 5,0.00000102,0.00000005,-0.00000550,-0.00000086,-0.00000838,-0.0000163
 3,0.00000128,-0.00000206,-0.00001106,-0.00000029,-0.00000429,-0.000016
 04,0.00000178,0.00000940,-0.00000450,0.00000240,0.00000286,0.00000088,
 0.00000499,0.00000181,-0.00001804,0.00000363,-0.00000814,-0.00001418,0
 .00000149,0.00000705,-0.00000981,-0.00002113,-0.00003765,-0.00000782,-
 0.00000089,-0.00001083,-0.00000292,0.00000086,-0.00000139,0.00000502,-
 0.00000076,-0.00000236,0.00000190,0.00000472,0.00000307,-0.00000128,0.
 00000313,0.00001238,0.00000412,0.00000875,0.00000601,0.00000265,0.0000
 0470,0.00001352,0.00000281,0.00000412,-0.00000829,-0.00000689,-0.00000
 648,-0.00000833,-0.00000628,-0.00000638,-0.00000936,0.00000030,-0.0000
 0491,-0.00000684,-0.00000180\\\@


 TO ERR IS HUMAN - AND TO BLAME IT ON A COMPUTER IS EVEN MORE SO.
 Job cpu time:       2 days 11 hours  2 minutes 50.7 seconds.
 Elapsed time:       0 days  6 hours 13 minutes 16.5 seconds.
 File lengths (MBytes):  RWF=   6140 Int=      0 D2E=      0 Chk=     64 Scr=      1
 Normal termination of Gaussian 16 at Tue Mar  4 21:18:32 2025.
