 Entering Gaussian System, Link 0=/sysapps/ubuntu-applications/gaussian-new/avx/g16//g16
 Input=irc-maj.in
 Output=irc-maj.log
 Initial command:
 /sysapps/ubuntu-applications/gaussian-new/avx/g16/l1.exe "/data/temp-scratch/selhajj1/7627280/Gau-131865.inp" -scrdir="/data/temp-scratch/selhajj1/7627280/"
 Entering Link 1 = /sysapps/ubuntu-applications/gaussian-new/avx/g16/l1.exe PID=    131868.
  
 Copyright (c) 1988,1990,1992,1993,1995,1998,2003,2009,2016,
            Gaussian, Inc.  All Rights Reserved.
  
 This is part of the Gaussian(R) 16 program.  It is based on
 the Gaussian(R) 09 system (copyright 2009, Gaussian, Inc.),
 the Gaussian(R) 03 system (copyright 2003, Gaussian, Inc.),
 the Gaussian(R) 98 system (copyright 1998, Gaussian, Inc.),
 the Gaussian(R) 94 system (copyright 1995, Gaussian, Inc.),
 the Gaussian 92(TM) system (copyright 1992, Gaussian, Inc.),
 the Gaussian 90(TM) system (copyright 1990, Gaussian, Inc.),
 the Gaussian 88(TM) system (copyright 1988, Gaussian, Inc.),
 the Gaussian 86(TM) system (copyright 1986, Carnegie Mellon
 University), and the Gaussian 82(TM) system (copyright 1983,
 Carnegie Mellon University). Gaussian is a federally registered
 trademark of Gaussian, Inc.
  
 This software contains proprietary and confidential information,
 including trade secrets, belonging to Gaussian, Inc.
  
 This software is provided under written license and may be
 used, copied, transmitted, or stored only in accord with that
 written license.
  
 The following legend is applicable only to US Government
 contracts under FAR:
  
                    RESTRICTED RIGHTS LEGEND
  
 Use, reproduction and disclosure by the US Government is
 subject to restrictions as set forth in subparagraphs (a)
 and (c) of the Commercial Computer Software - Restricted
 Rights clause in FAR 52.227-19.
  
 Gaussian, Inc.
 340 Quinnipiac St., Bldg. 40, Wallingford CT 06492
  
  
 ---------------------------------------------------------------
 Warning -- This program may not be used in any manner that
 competes with the business of Gaussian, Inc. or will provide
 assistance to any competitor of Gaussian, Inc.  The licensee
 of this program is prohibited from giving any competitor of
 Gaussian, Inc. access to this program.  By using this program,
 the user acknowledges that Gaussian, Inc. is engaged in the
 business of creating and licensing software in the field of
 computational chemistry and represents and warrants to the
 licensee that it is not a competitor of Gaussian, Inc. and that
 it will not use this program in any manner prohibited above.
 ---------------------------------------------------------------
  

 Cite this work as:
 Gaussian 16, Revision A.03,
 M. J. Frisch, G. W. Trucks, H. B. Schlegel, G. E. Scuseria, 
 M. A. Robb, J. R. Cheeseman, G. Scalmani, V. Barone, 
 G. A. Petersson, H. Nakatsuji, X. Li, M. Caricato, A. V. Marenich, 
 J. Bloino, B. G. Janesko, R. Gomperts, B. Mennucci, H. P. Hratchian, 
 J. V. Ortiz, A. F. Izmaylov, J. L. Sonnenberg, D. Williams-Young, 
 F. Ding, F. Lipparini, F. Egidi, J. Goings, B. Peng, A. Petrone, 
 T. Henderson, D. Ranasinghe, V. G. Zakrzewski, J. Gao, N. Rega, 
 G. Zheng, W. Liang, M. Hada, M. Ehara, K. Toyota, R. Fukuda, 
 J. Hasegawa, M. Ishida, T. Nakajima, Y. Honda, O. Kitao, H. Nakai, 
 T. Vreven, K. Throssell, J. A. Montgomery, Jr., J. E. Peralta, 
 F. Ogliaro, M. J. Bearpark, J. J. Heyd, E. N. Brothers, K. N. Kudin, 
 V. N. Staroverov, T. A. Keith, R. Kobayashi, J. Normand, 
 K. Raghavachari, A. P. Rendell, J. C. Burant, S. S. Iyengar, 
 J. Tomasi, M. Cossi, J. M. Millam, M. Klene, C. Adamo, R. Cammi, 
 J. W. Ochterski, R. L. Martin, K. Morokuma, O. Farkas, 
 J. B. Foresman, and D. J. Fox, Gaussian, Inc., Wallingford CT, 2016.
 
 ******************************************
 Gaussian 16:  ES64L-G16RevA.03 25-Dec-2016
                 2-Mar-2025 
 ******************************************
 %chk=ts-ketone.chk
 %mem=616Gb
 %nprocshared=24
 Will use up to   24 processors via shared memory.
 ----------------------------------------------------------------------
 # irc=(maxpoints=100,recorrect=never,calcfc,maxcycles=500,nogradstop) 
 MN15/gen scrf=(smd,solvent=DiChloroEthane)
 ----------------------------------------------------------------------
 1/6=500,10=4,18=10,26=3,38=1,42=100,44=3,108=-1,131=1,172=1/1,23;
 2/12=2,17=6,18=5,29=1,40=1/2;
 3/5=7,11=2,25=1,30=1,70=32201,71=2,72=10,74=-73,140=1/1,2,3;
 4//1;
 5/5=2,38=5,53=10/2;
 8/6=4,10=90,11=11/1;
 11/6=1,8=1,9=11,15=111,16=1/1,2,10;
 10/6=1,13=1/2;
 6/7=2,8=2,9=2,10=2,28=1/1;
 7/10=1,18=20,25=1/1,2,3,16;
 1/6=500,10=4,18=10,26=3,42=100,44=3,108=-1,131=1/23(2);
 2/29=1/2;
 99/5=20/99;
 2/29=1/2;
 3/5=7,6=1,11=2,25=1,30=1,70=32205,71=2,72=10,74=-73,82=7,140=1/1,2,3;
 4/5=5,16=3,69=1/1;
 5/5=2,38=5,53=10/2;
 8/6=4,10=90,11=11/1;
 11/6=1,8=1,9=11,15=111,16=1/1,2,10;
 10/6=1,13=1/2;
 7/10=1,18=20,25=1/1,2,3,16;
 1/6=500,18=10,26=3,42=100,44=3,108=-1,131=1/23(-8);
 2/29=1/2;
 6/7=2,8=2,9=2,10=2,19=2,28=1/1;
 99/5=20,9=1/99;
 -----------------------------------------------------------
 IRC for Going from i2 to i3, where we are forming bond 7-66
 -----------------------------------------------------------
 Symbolic Z-matrix:
 Charge =  0 Multiplicity = 1
 C                     5.84268  -0.57846   0.55949 
 C                     6.06898  -0.97692   1.88506 
 C                     7.28099  -1.56976   2.24603 
 C                     8.27812  -1.77309   1.28994 
 C                     8.06035  -1.38082  -0.03301 
 C                     6.85032  -0.78795  -0.39377 
 C                     1.92756  -0.00528   0.37532 
 C                     1.47071  -0.3019   -0.99029 
 C                     0.88249  -0.06184   1.42042 
 H                     5.30339  -0.82769   2.64997 
 H                     7.44363  -1.87566   3.28176 
 H                     9.22373  -2.23958   1.57506 
 H                     8.83327  -1.53914  -0.78816 
 H                     6.67818  -0.48144  -1.42972 
 O                    -0.31478   0.16085   1.15875 
 O                     0.29928  -0.03321  -1.36082 
 O                    -3.68194   1.37153   2.31433 
 O                    -2.60659   0.80384  -2.14891 
 O                    -0.75905  -2.26087   0.03111 
 S                    -1.61685  -2.97967  -0.96069 
 S                    -3.4223   -0.05374   2.2633 
 S                    -2.65086   2.16749  -1.52671 
 O                    -2.39493  -1.88575  -1.62934 
 O                    -2.32703  -4.15198  -0.52716 
 O                    -3.09443  -0.53229   0.85405 
 O                    -2.57134  -0.6593    3.26841 
 O                    -1.93611   1.97975  -0.2246 
 O                    -2.28465   3.29784  -2.3402 
 C                    -4.41619   2.41557  -1.05155 
 C                    -5.05882  -0.8643    2.46307 
 C                    -0.4273   -3.54189  -2.26903 
 F                    -4.47922   3.39387  -0.17273 
 F                    -4.89374   1.30474  -0.5321 
 F                    -5.10223   2.73691  -2.131 
 F                    -4.92971  -2.17642   2.35626 
 F                    -5.89967  -0.43242   1.5382 
 F                    -5.53936  -0.56969   3.66058 
 F                    -0.26636  -2.57935  -3.15905 
 F                    -0.90467  -4.61689  -2.85854 
 F                     0.73481  -3.81835  -1.70549 
 C                     4.55419   0.08828   0.12087 
 H                     4.49136  -0.00643  -0.97216 
 C                     4.59575   1.63692   0.3402 
 C                     5.74579   2.23399  -0.36754 
 C                     4.70942   1.94388   1.78262 
 C                     1.01065   2.62627  -0.05128 
 C                     2.26797   2.79619  -2.08931 
 C                     1.04794   3.00249  -1.35396 
 H                     0.1302    2.75715   0.57614 
 H                     2.32474   2.99275  -3.16209 
 H                     0.18746   3.45923  -1.84621 
 N                     6.67958   2.6618   -0.89862 
 N                     4.76603   2.11559   2.92541 
 N                     3.34893   2.21032  -0.19163 
 N                     3.37445   2.42632  -1.51546 
 C                     2.17563   1.95934   0.49496 
 H                     2.30077   1.97648   1.58235 
 Sc                   -1.59088  -0.20445  -0.46559 
 C                     3.30953  -0.50902   0.80161 
 H                     3.36398  -1.60339   0.68407 
 H                     3.41386  -0.31784   1.87826 
 C                     2.36998  -0.9452   -1.99973 
 H                     3.04037  -0.1929   -2.44302 
 H                     2.99218  -1.73208  -1.55131 
 H                     1.75466  -1.35488  -2.80735 
 C                     1.23574  -0.32069   2.84721 
 H                     1.68417  -1.3224    2.94122 
 H                     1.98095   0.40227   3.21808 
 H                     0.31837  -0.26438   3.44428 
 
 IRC-IRC-IRC-IRC-IRC-IRC-IRC-IRC-IRC-IRC-IRC-IRC-IRC-IRC-IRC-IRC-IRC-IRC
 ------------------------------------------------------------------------
 INPUT DATA FOR L123
 ------------------------------------------------------------------------
 GENERAL PARAMETERS:
 Follow reaction path in both directions.
 Maximum points per path      = 100
 Step size                    =   0.100 bohr
 Integration scheme           = HPC                                 
    Redo corrector integration= Never                               
    DWI Weight Power          =  2
    DWI will use Hessian update vectors when possible.
 Initial Hessian              = CalcFC
 Hessian evaluation           = All updating
 Hessian updating method      = Bofill                              
 ------------------------------------------------------------------------
 IRC-IRC-IRC-IRC-IRC-IRC-IRC-IRC-IRC-IRC-IRC-IRC-IRC-IRC-IRC-IRC-IRC-IRC
 Symmetry turned off by external request.
 Stoichiometry    C23H18F9N4O11S3Sc
 Framework group  C1[X(C23H18F9N4O11S3Sc)]
 Deg. of freedom   201
 Full point group                 C1      NOp   1
                          Input orientation:                          
 ---------------------------------------------------------------------
 Center     Atomic      Atomic             Coordinates (Angstroms)
 Number     Number       Type             X           Y           Z
 ---------------------------------------------------------------------
      1          6           0        5.842679   -0.578460    0.559493
      2          6           0        6.068975   -0.976921    1.885056
      3          6           0        7.280988   -1.569759    2.246028
      4          6           0        8.278122   -1.773094    1.289944
      5          6           0        8.060353   -1.380818   -0.033011
      6          6           0        6.850316   -0.787954   -0.393772
      7          6           0        1.927555   -0.005280    0.375324
      8          6           0        1.470707   -0.301896   -0.990290
      9          6           0        0.882486   -0.061839    1.420422
     10          1           0        5.303387   -0.827687    2.649967
     11          1           0        7.443627   -1.875657    3.281761
     12          1           0        9.223729   -2.239575    1.575056
     13          1           0        8.833272   -1.539142   -0.788160
     14          1           0        6.678177   -0.481437   -1.429719
     15          8           0       -0.314783    0.160845    1.158746
     16          8           0        0.299279   -0.033207   -1.360818
     17          8           0       -3.681938    1.371530    2.314327
     18          8           0       -2.606591    0.803841   -2.148909
     19          8           0       -0.759052   -2.260868    0.031110
     20         16           0       -1.616854   -2.979672   -0.960691
     21         16           0       -3.422299   -0.053736    2.263295
     22         16           0       -2.650864    2.167487   -1.526708
     23          8           0       -2.394932   -1.885746   -1.629344
     24          8           0       -2.327031   -4.151982   -0.527161
     25          8           0       -3.094432   -0.532293    0.854048
     26          8           0       -2.571339   -0.659297    3.268411
     27          8           0       -1.936107    1.979753   -0.224603
     28          8           0       -2.284649    3.297837   -2.340200
     29          6           0       -4.416194    2.415574   -1.051546
     30          6           0       -5.058819   -0.864295    2.463071
     31          6           0       -0.427302   -3.541887   -2.269030
     32          9           0       -4.479221    3.393870   -0.172734
     33          9           0       -4.893742    1.304736   -0.532100
     34          9           0       -5.102234    2.736913   -2.130997
     35          9           0       -4.929712   -2.176416    2.356261
     36          9           0       -5.899673   -0.432424    1.538197
     37          9           0       -5.539359   -0.569685    3.660580
     38          9           0       -0.266363   -2.579350   -3.159051
     39          9           0       -0.904674   -4.616888   -2.858535
     40          9           0        0.734811   -3.818345   -1.705486
     41          6           0        4.554191    0.088275    0.120869
     42          1           0        4.491358   -0.006429   -0.972163
     43          6           0        4.595752    1.636919    0.340198
     44          6           0        5.745791    2.233989   -0.367542
     45          6           0        4.709417    1.943882    1.782615
     46          6           0        1.010653    2.626265   -0.051281
     47          6           0        2.267971    2.796194   -2.089307
     48          6           0        1.047941    3.002490   -1.353964
     49          1           0        0.130199    2.757150    0.576140
     50          1           0        2.324743    2.992745   -3.162093
     51          1           0        0.187455    3.459225   -1.846208
     52          7           0        6.679578    2.661799   -0.898617
     53          7           0        4.766027    2.115592    2.925405
     54          7           0        3.348932    2.210321   -0.191631
     55          7           0        3.374452    2.426318   -1.515461
     56          6           0        2.175633    1.959344    0.494960
     57          1           0        2.300770    1.976481    1.582346
     58         21           0       -1.590883   -0.204453   -0.465590
     59          6           0        3.309531   -0.509019    0.801606
     60          1           0        3.363979   -1.603394    0.684073
     61          1           0        3.413855   -0.317839    1.878261
     62          6           0        2.369978   -0.945197   -1.999726
     63          1           0        3.040369   -0.192896   -2.443016
     64          1           0        2.992181   -1.732079   -1.551310
     65          1           0        1.754655   -1.354877   -2.807347
     66          6           0        1.235738   -0.320685    2.847210
     67          1           0        1.684167   -1.322403    2.941216
     68          1           0        1.980946    0.402268    3.218076
     69          1           0        0.318371   -0.264382    3.444280
 ---------------------------------------------------------------------
 Rotational constants (GHZ):           0.0817845           0.0342670           0.0319045
 General basis read from cards:  (5D, 7F)
   847 basis functions,  1514 primitive gaussians,   904 cartesian basis functions
   211 alpha electrons      211 beta electrons
       nuclear repulsion energy      9765.3331914637 Hartrees.
 NAtoms=   69 NActive=   69 NUniq=   69 SFac= 1.00D+00 NAtFMM=   60 NAOKFM=T Big=T
 Integral buffers will be    131072 words long.
 Raffenetti 2 integral format.
 Two-electron integral symmetry is turned off.
 Force inversion solution in PCM.
 ------------------------------------------------------------------------------
 Polarizable Continuum Model (PCM)
 =================================
 Model                : PCM.
 Atomic radii         : SMD-Coulomb.
 Polarization charges : Total charges.
 Charge compensation  : None.
 Solution method      : Matrix inversion.
 Cavity type          : VdW (van der Waals Surface) (Alpha=1.000).
 Cavity algorithm     : GePol (No added spheres)
                        Default sphere list used, NSphG=   69.
                        Lebedev-Laikov grids with approx.  5.0 points / Ang**2.
                        Smoothing algorithm: York/Karplus (Gamma=1.0000).
                        Polarization charges: spherical gaussians, with
                                              point-specific exponents (IZeta= 3).
                        Self-potential: point-specific (ISelfS= 7).
                        Self-field    : sphere-specific E.n sum rule (ISelfD= 2).
 1st derivatives      : Analytical E(r).r(x)/FMM algorithm (CHGder, D1EAlg=3).
                        Cavity 1st derivative terms included.
 2nd derivatives      : Analytical E(r).r(xy)/FMM algorithm (CHGder, D2EAlg=3).
                        Cavity 2nd derivative terms included.
 Solvent              : DiChloroEthane, Eps=  10.125000 Eps(inf)=   2.087447
 ------------------------------------------------------------------------------
 ------------------------------------------------------------------------------
 Atomic radii for non-electrostatic terms: SMD-CDS.
 ------------------------------------------------------------------------------
 Nuclear repulsion after PCM non-electrostatic terms =     9765.3375046021 Hartrees.
 One-electron integrals computed using PRISM.
 NBasis=   847 RedAO= T EigKep=  2.28D-04  NBF=   847
 NBsUse=   847 1.00D-06 EigRej= -1.00D+00 NBFU=   847
 ExpMin= 3.01D-02 ExpMax= 1.92D+05 ExpMxC= 1.85D+03 IAcc=3 IRadAn=         5 AccDes= 0.00D+00
 Harris functional with IExCor= 1009 and IRadAn=       5 diagonalized for initial guess.
 HarFok:  IExCor= 1009 AccDes= 0.00D+00 IRadAn=         5 IDoV= 1 UseB2=F ITyADJ=14
 ICtDFT=  3500011 ScaDFX=  1.000000  1.000000  1.000000  1.000000
 FoFCou: FMM=F IPFlag=           0 FMFlag=      100000 FMFlg1=        2001
         NFxFlg=           0 DoJE=T BraDBF=F KetDBF=T FulRan=T
         wScrn=  0.000000 ICntrl=       500 IOpCl=  0 I1Cent=   200000004 NGrid=           0
         NMat0=    1 NMatS0=      1 NMatT0=    0 NMatD0=    1 NMtDS0=    0 NMtDT0=    0
 Symmetry not used in FoFCou.
 Requested convergence on RMS density matrix=1.00D-08 within 128 cycles.
 Requested convergence on MAX density matrix=1.00D-06.
 Requested convergence on             energy=1.00D-06.
 No special actions if energy rises.
 Inv3:  Mode=1 IEnd=    71384652.
 Iteration    1 A*A^-1 deviation from unit magnitude is 2.63D-14 for   4865.
 Iteration    1 A*A^-1 deviation from orthogonality  is 4.39D-15 for   4865   4268.
 Iteration    1 A^-1*A deviation from unit magnitude is 2.63D-14 for   4865.
 Iteration    1 A^-1*A deviation from orthogonality  is 1.78D-15 for   2419    478.
 Error on total polarization charges =  0.03388
 SCF Done:  E(RMN15) =  -4781.71053552     A.U. after   15 cycles
            NFock= 15  Conv=0.40D-08     -V/T= 2.0064
 SMD-CDS (non-electrostatic) energy       (kcal/mol) =       2.71
 (included in total energy above)
 DoSCS=F DFT=T ScalE2(SS,OS)=  1.000000  1.000000
 Range of M.O.s used for correlation:     1   847
 NBasis=   847 NAE=   211 NBE=   211 NFC=     0 NFV=     0
 NROrb=    847 NOA=   211 NOB=   211 NVA=   636 NVB=   636

 **** Warning!!: The largest alpha MO coefficient is  0.10362507D+02

 Symmetrizing basis deriv contribution to polar:
 IMax=3 JMax=2 DiffMx= 0.00D+00
 G2DrvN: will do    70 centers at a time, making    1 passes.
 Calling FoFCou, ICntrl=  3107 FMM=T I1Cent=   0 AccDes= 0.00D+00.
 NEqPCM:  Using equilibrium solvation (IEInf=0, Eps=  10.1250, EpsInf=   2.0874)
 G2PCM: DoFxE=T DoFxN=T DoGrad=T DoDP/DQ/DG/TGxP=FFFF NFrqRd=   0 IEInf=0 SqF1=F DoCFld=F IF1Alg=4.
 End of G2Drv F.D. properties file   721 does not exist.
 End of G2Drv F.D. properties file   722 does not exist.
 End of G2Drv F.D. properties file   788 does not exist.
          IDoAtm=11111111111111111111111111111111111111111111111111
          IDoAtm=1111111111111111111
 NEqPCM:  Using equilibrium solvation (IEInf=0, Eps=  10.1250, EpsInf=   2.0874)
          Differentiating once with respect to nuclear coordinates.
 CalDSu exits because no D1Ps are significant.
          There are   210 degrees of freedom in the 1st order CPHF.  IDoFFX=6 NUNeed=     0.
    207 vectors produced by pass  0 Test12= 1.34D-13 1.00D-09 XBig12= 1.67D-01 1.47D-01.
 AX will form    72 AO Fock derivatives at one time.
    204 vectors produced by pass  1 Test12= 1.34D-13 1.00D-09 XBig12= 4.16D-02 4.03D-02.
    204 vectors produced by pass  2 Test12= 1.34D-13 1.00D-09 XBig12= 1.28D-03 3.60D-03.
    204 vectors produced by pass  3 Test12= 1.34D-13 1.00D-09 XBig12= 2.15D-05 3.92D-04.
    204 vectors produced by pass  4 Test12= 1.34D-13 1.00D-09 XBig12= 2.41D-07 4.65D-05.
    204 vectors produced by pass  5 Test12= 1.34D-13 1.00D-09 XBig12= 1.43D-09 4.53D-06.
    167 vectors produced by pass  6 Test12= 1.34D-13 1.00D-09 XBig12= 6.37D-12 3.19D-07.
     56 vectors produced by pass  7 Test12= 1.34D-13 1.00D-09 XBig12= 2.40D-14 1.19D-08.
      1 vectors produced by pass  8 Test12= 1.34D-13 1.00D-09 XBig12= 1.33D-15 1.72D-09.
 InvSVY:  IOpt=1 It=  1 EMax= 9.99D-16
 Solved reduced A of dimension  1451 with   210 vectors.
 End of Minotr F.D. properties file   721 does not exist.
 End of Minotr F.D. properties file   722 does not exist.
 End of Minotr F.D. properties file   788 does not exist.

 **********************************************************************

            Population analysis using the SCF density.

 **********************************************************************

 Alpha  occ. eigenvalues -- -160.20489 -88.06976 -88.06653 -88.04156 -24.34772
 Alpha  occ. eigenvalues --  -24.34693 -24.34503 -24.34403 -24.34321 -24.34304
 Alpha  occ. eigenvalues --  -24.32824 -24.32805 -24.32784 -18.86212 -18.85766
 Alpha  occ. eigenvalues --  -18.85731 -18.85616 -18.85254 -18.85150 -18.84727
 Alpha  occ. eigenvalues --  -18.84150 -18.83876 -18.81103 -18.81089 -17.19181
 Alpha  occ. eigenvalues --  -14.49321 -14.49277 -14.49224 -14.23182 -14.18271
 Alpha  occ. eigenvalues --  -14.14937 -14.13972 -10.34191 -10.34173 -10.31784
 Alpha  occ. eigenvalues --  -10.21319 -10.19360 -10.19250 -10.17588 -10.13995
 Alpha  occ. eigenvalues --  -10.13304 -10.12499 -10.11163 -10.11009 -10.10235
 Alpha  occ. eigenvalues --  -10.09946 -10.09047 -10.07903 -10.06800 -10.06690
 Alpha  occ. eigenvalues --  -10.06640 -10.06518 -10.06180 -10.06150 -10.06123
 Alpha  occ. eigenvalues --   -7.96867  -7.96488  -7.93958  -6.16389  -6.16342
 Alpha  occ. eigenvalues --   -6.16187  -6.16005  -6.15958  -6.15834  -6.13572
 Alpha  occ. eigenvalues --   -6.13354  -6.13334  -2.15760  -1.40566  -1.40379
 Alpha  occ. eigenvalues --   -1.40068  -1.38478  -1.38266  -1.36495  -1.28447
 Alpha  occ. eigenvalues --   -1.28415  -1.28267  -1.28169  -1.26488  -1.26444
 Alpha  occ. eigenvalues --   -1.21405  -1.20759  -1.17836  -1.13659  -1.12374
 Alpha  occ. eigenvalues --   -1.10452  -1.08492  -1.07908  -1.06250  -1.05822
 Alpha  occ. eigenvalues --   -1.04177  -1.04138  -0.99627  -0.97052  -0.95392
 Alpha  occ. eigenvalues --   -0.91404  -0.90675  -0.88411  -0.86169  -0.81502
 Alpha  occ. eigenvalues --   -0.80981  -0.80774  -0.80528  -0.78806  -0.78603
 Alpha  occ. eigenvalues --   -0.77977  -0.75882  -0.75513  -0.72908  -0.72701
 Alpha  occ. eigenvalues --   -0.72606  -0.70807  -0.69628  -0.68430  -0.68311
 Alpha  occ. eigenvalues --   -0.68121  -0.68093  -0.66505  -0.66421  -0.66174
 Alpha  occ. eigenvalues --   -0.64945  -0.64740  -0.63954  -0.63860  -0.63150
 Alpha  occ. eigenvalues --   -0.62661  -0.61831  -0.60218  -0.59546  -0.58763
 Alpha  occ. eigenvalues --   -0.58338  -0.57727  -0.57434  -0.56527  -0.56458
 Alpha  occ. eigenvalues --   -0.56177  -0.55879  -0.55585  -0.55376  -0.55012
 Alpha  occ. eigenvalues --   -0.54875  -0.54720  -0.54642  -0.54539  -0.54335
 Alpha  occ. eigenvalues --   -0.54186  -0.54018  -0.53555  -0.53172  -0.52339
 Alpha  occ. eigenvalues --   -0.52310  -0.52272  -0.52164  -0.51905  -0.51667
 Alpha  occ. eigenvalues --   -0.51136  -0.50770  -0.50406  -0.50194  -0.50004
 Alpha  occ. eigenvalues --   -0.49963  -0.49776  -0.49339  -0.49024  -0.48562
 Alpha  occ. eigenvalues --   -0.48248  -0.47982  -0.47896  -0.47126  -0.46387
 Alpha  occ. eigenvalues --   -0.46215  -0.46026  -0.45820  -0.45408  -0.44731
 Alpha  occ. eigenvalues --   -0.44630  -0.44276  -0.43836  -0.43726  -0.43469
 Alpha  occ. eigenvalues --   -0.43190  -0.42850  -0.42686  -0.42580  -0.42374
 Alpha  occ. eigenvalues --   -0.41784  -0.41385  -0.41094  -0.41023  -0.40695
 Alpha  occ. eigenvalues --   -0.40622  -0.40484  -0.40047  -0.39482  -0.39170
 Alpha  occ. eigenvalues --   -0.38981  -0.38551  -0.38303  -0.38044  -0.37974
 Alpha  occ. eigenvalues --   -0.37725  -0.37336  -0.37077  -0.36956  -0.35798
 Alpha  occ. eigenvalues --   -0.35559  -0.33573  -0.33471  -0.29830  -0.29822
 Alpha  occ. eigenvalues --   -0.27734
 Alpha virt. eigenvalues --   -0.07767  -0.05822  -0.04736  -0.01837  -0.01163
 Alpha virt. eigenvalues --   -0.01007   0.00122   0.00729   0.01078   0.01338
 Alpha virt. eigenvalues --    0.02109   0.04191   0.05307   0.05790   0.06086
 Alpha virt. eigenvalues --    0.06703   0.07960   0.08506   0.08782   0.08997
 Alpha virt. eigenvalues --    0.09244   0.09652   0.10130   0.10158   0.10525
 Alpha virt. eigenvalues --    0.10680   0.11284   0.11724   0.12464   0.12687
 Alpha virt. eigenvalues --    0.13118   0.13157   0.13477   0.14021   0.14272
 Alpha virt. eigenvalues --    0.14803   0.15417   0.15480   0.15742   0.16280
 Alpha virt. eigenvalues --    0.16372   0.16648   0.17254   0.17764   0.17822
 Alpha virt. eigenvalues --    0.18580   0.19013   0.19201   0.19572   0.20130
 Alpha virt. eigenvalues --    0.20844   0.21266   0.21582   0.22017   0.22239
 Alpha virt. eigenvalues --    0.22660   0.23153   0.23824   0.24146   0.24321
 Alpha virt. eigenvalues --    0.24413   0.24799   0.25210   0.25647   0.25767
 Alpha virt. eigenvalues --    0.26118   0.26227   0.26583   0.26688   0.27120
 Alpha virt. eigenvalues --    0.27610   0.27788   0.28042   0.28432   0.28873
 Alpha virt. eigenvalues --    0.29102   0.29746   0.30278   0.30979   0.32065
 Alpha virt. eigenvalues --    0.32275   0.32968   0.33318   0.34839   0.35378
 Alpha virt. eigenvalues --    0.36136   0.36844   0.37549   0.38087   0.39041
 Alpha virt. eigenvalues --    0.39535   0.40248   0.40412   0.41075   0.41297
 Alpha virt. eigenvalues --    0.42071   0.42614   0.42859   0.43282   0.43607
 Alpha virt. eigenvalues --    0.43760   0.44700   0.45087   0.45520   0.46183
 Alpha virt. eigenvalues --    0.46512   0.47511   0.47785   0.47873   0.48315
 Alpha virt. eigenvalues --    0.48872   0.49049   0.49311   0.50006   0.50413
 Alpha virt. eigenvalues --    0.50538   0.50746   0.50950   0.51470   0.51644
 Alpha virt. eigenvalues --    0.52110   0.52524   0.52836   0.52972   0.53452
 Alpha virt. eigenvalues --    0.54432   0.55141   0.55607   0.56118   0.56567
 Alpha virt. eigenvalues --    0.56671   0.57123   0.58121   0.58282   0.58425
 Alpha virt. eigenvalues --    0.58807   0.59164   0.60035   0.60449   0.60909
 Alpha virt. eigenvalues --    0.61363   0.61742   0.62226   0.62681   0.62892
 Alpha virt. eigenvalues --    0.63261   0.63493   0.64700   0.64892   0.65184
 Alpha virt. eigenvalues --    0.65587   0.65977   0.66226   0.66626   0.67050
 Alpha virt. eigenvalues --    0.67310   0.67510   0.68071   0.68110   0.68545
 Alpha virt. eigenvalues --    0.68684   0.68811   0.69057   0.69259   0.69520
 Alpha virt. eigenvalues --    0.70044   0.70217   0.70578   0.71068   0.71497
 Alpha virt. eigenvalues --    0.71715   0.71881   0.72134   0.72658   0.73031
 Alpha virt. eigenvalues --    0.73559   0.73634   0.73948   0.74450   0.74874
 Alpha virt. eigenvalues --    0.75109   0.75234   0.75947   0.76320   0.76877
 Alpha virt. eigenvalues --    0.76923   0.77308   0.77772   0.77985   0.79101
 Alpha virt. eigenvalues --    0.79335   0.79447   0.80140   0.80827   0.81182
 Alpha virt. eigenvalues --    0.81448   0.82532   0.82898   0.84048   0.84588
 Alpha virt. eigenvalues --    0.85179   0.85820   0.86634   0.86954   0.87991
 Alpha virt. eigenvalues --    0.88241   0.88509   0.88901   0.89110   0.90282
 Alpha virt. eigenvalues --    0.90648   0.90805   0.91374   0.92283   0.92527
 Alpha virt. eigenvalues --    0.93082   0.93686   0.94307   0.94677   0.95503
 Alpha virt. eigenvalues --    0.95886   0.96499   0.96550   0.97199   0.97636
 Alpha virt. eigenvalues --    0.98323   0.98938   0.99664   0.99904   1.01182
 Alpha virt. eigenvalues --    1.01377   1.02202   1.03175   1.03579   1.04040
 Alpha virt. eigenvalues --    1.04199   1.04527   1.04997   1.05813   1.06373
 Alpha virt. eigenvalues --    1.06679   1.07226   1.07461   1.08625   1.08699
 Alpha virt. eigenvalues --    1.08924   1.09225   1.09714   1.09879   1.10556
 Alpha virt. eigenvalues --    1.11089   1.11487   1.12030   1.12545   1.13190
 Alpha virt. eigenvalues --    1.13556   1.14078   1.15060   1.15296   1.15778
 Alpha virt. eigenvalues --    1.15949   1.16141   1.16710   1.17131   1.17307
 Alpha virt. eigenvalues --    1.17883   1.18157   1.18246   1.18616   1.19906
 Alpha virt. eigenvalues --    1.20453   1.20535   1.20961   1.21164   1.21620
 Alpha virt. eigenvalues --    1.21917   1.22709   1.23413   1.23921   1.24403
 Alpha virt. eigenvalues --    1.24653   1.25397   1.25452   1.25890   1.26199
 Alpha virt. eigenvalues --    1.26420   1.27187   1.27704   1.28356   1.28618
 Alpha virt. eigenvalues --    1.29565   1.30114   1.30728   1.30932   1.31789
 Alpha virt. eigenvalues --    1.32425   1.32645   1.33016   1.33319   1.33809
 Alpha virt. eigenvalues --    1.34106   1.34766   1.35110   1.35281   1.35645
 Alpha virt. eigenvalues --    1.36095   1.36431   1.36897   1.37276   1.38419
 Alpha virt. eigenvalues --    1.38886   1.39580   1.40583   1.40732   1.40947
 Alpha virt. eigenvalues --    1.41780   1.42330   1.42892   1.43333   1.43636
 Alpha virt. eigenvalues --    1.44011   1.44793   1.45120   1.45901   1.46621
 Alpha virt. eigenvalues --    1.46867   1.47375   1.48787   1.49254   1.49572
 Alpha virt. eigenvalues --    1.50465   1.51424   1.51738   1.52943   1.53061
 Alpha virt. eigenvalues --    1.53983   1.54458   1.54954   1.55643   1.55844
 Alpha virt. eigenvalues --    1.56051   1.56439   1.56833   1.57850   1.58000
 Alpha virt. eigenvalues --    1.58387   1.58764   1.59950   1.60174   1.60565
 Alpha virt. eigenvalues --    1.61810   1.62282   1.62642   1.63539   1.64593
 Alpha virt. eigenvalues --    1.65047   1.65956   1.66588   1.67049   1.67422
 Alpha virt. eigenvalues --    1.67830   1.68047   1.68486   1.68779   1.69144
 Alpha virt. eigenvalues --    1.70301   1.70497   1.70852   1.71879   1.72548
 Alpha virt. eigenvalues --    1.73086   1.73434   1.73967   1.74181   1.74601
 Alpha virt. eigenvalues --    1.75198   1.75313   1.75438   1.76429   1.76735
 Alpha virt. eigenvalues --    1.77196   1.77593   1.78228   1.79221   1.79662
 Alpha virt. eigenvalues --    1.80297   1.80474   1.80970   1.81740   1.83054
 Alpha virt. eigenvalues --    1.83102   1.83580   1.84258   1.85109   1.85910
 Alpha virt. eigenvalues --    1.86463   1.86572   1.86964   1.88123   1.88209
 Alpha virt. eigenvalues --    1.88678   1.89038   1.89489   1.89504   1.89783
 Alpha virt. eigenvalues --    1.90174   1.90372   1.90920   1.91627   1.91881
 Alpha virt. eigenvalues --    1.92316   1.92774   1.93468   1.93982   1.94322
 Alpha virt. eigenvalues --    1.94717   1.95315   1.95356   1.95412   1.96041
 Alpha virt. eigenvalues --    1.96755   1.97310   1.97913   1.98302   1.99482
 Alpha virt. eigenvalues --    1.99746   2.00238   2.00463   2.00607   2.01453
 Alpha virt. eigenvalues --    2.02073   2.02156   2.02640   2.02974   2.03384
 Alpha virt. eigenvalues --    2.03854   2.04667   2.06219   2.07009   2.07550
 Alpha virt. eigenvalues --    2.09156   2.09257   2.09916   2.10934   2.11200
 Alpha virt. eigenvalues --    2.11624   2.12293   2.12898   2.13141   2.13909
 Alpha virt. eigenvalues --    2.14295   2.14872   2.15996   2.16654   2.17474
 Alpha virt. eigenvalues --    2.18098   2.20414   2.20680   2.22113   2.22644
 Alpha virt. eigenvalues --    2.23178   2.23321   2.24151   2.24848   2.25179
 Alpha virt. eigenvalues --    2.25393   2.26890   2.28252   2.28503   2.30303
 Alpha virt. eigenvalues --    2.31017   2.32172   2.33400   2.34746   2.36756
 Alpha virt. eigenvalues --    2.37550   2.37580   2.39277   2.40597   2.40924
 Alpha virt. eigenvalues --    2.41718   2.43255   2.44156   2.45247   2.45604
 Alpha virt. eigenvalues --    2.46464   2.48856   2.51539   2.53021   2.53760
 Alpha virt. eigenvalues --    2.54227   2.55358   2.56627   2.56785   2.56902
 Alpha virt. eigenvalues --    2.57621   2.58789   2.59217   2.60103   2.61256
 Alpha virt. eigenvalues --    2.61637   2.61948   2.62366   2.62581   2.62979
 Alpha virt. eigenvalues --    2.63483   2.64347   2.64554   2.65489   2.65650
 Alpha virt. eigenvalues --    2.66169   2.66507   2.67574   2.67909   2.68302
 Alpha virt. eigenvalues --    2.68732   2.69341   2.69479   2.70120   2.70688
 Alpha virt. eigenvalues --    2.71070   2.71711   2.72287   2.73122   2.73822
 Alpha virt. eigenvalues --    2.75378   2.76521   2.77304   2.77653   2.78478
 Alpha virt. eigenvalues --    2.79207   2.79248   2.79788   2.80029   2.80335
 Alpha virt. eigenvalues --    2.80473   2.81570   2.81858   2.82646   2.83415
 Alpha virt. eigenvalues --    2.84261   2.85216   2.86653   2.87136   2.87871
 Alpha virt. eigenvalues --    2.88407   2.90199   2.91227   2.91708   2.92102
 Alpha virt. eigenvalues --    2.92933   2.93127   2.93862   2.94532   2.95224
 Alpha virt. eigenvalues --    2.95597   2.96296   2.96816   2.97373   2.97937
 Alpha virt. eigenvalues --    2.97955   2.98361   2.98873   2.99349   2.99576
 Alpha virt. eigenvalues --    3.00227   3.00384   3.01807   3.02085   3.02183
 Alpha virt. eigenvalues --    3.02345   3.02538   3.02580   3.02786   3.02960
 Alpha virt. eigenvalues --    3.03039   3.03474   3.03782   3.04056   3.04150
 Alpha virt. eigenvalues --    3.04190   3.04479   3.04496   3.05430   3.05678
 Alpha virt. eigenvalues --    3.05720   3.06218   3.06592   3.06863   3.09078
 Alpha virt. eigenvalues --    3.09640   3.13019   3.13477   3.14709   3.14819
 Alpha virt. eigenvalues --    3.15611   3.15762   3.15907   3.16229   3.17892
 Alpha virt. eigenvalues --    3.20536   3.21119   3.21532   3.30182   3.32575
 Alpha virt. eigenvalues --    3.33025   3.33899   3.34616   3.34947   3.36446
 Alpha virt. eigenvalues --    3.36544   3.36712   3.37985   3.38596   3.39381
 Alpha virt. eigenvalues --    3.42186   3.43751   3.49391   3.50992   3.51449
 Alpha virt. eigenvalues --    3.52334   3.52675   3.52870   3.52971   3.53496
 Alpha virt. eigenvalues --    3.57690   3.58604   3.66869   3.67273   3.68063
 Alpha virt. eigenvalues --    3.80763   3.82146   3.82662   3.82896   3.83190
 Alpha virt. eigenvalues --    3.83706
          Condensed to atoms (all electrons):
 Mulliken charges:
               1
     1  C    0.009751
     2  C   -0.010179
     3  C   -0.001258
     4  C    0.015757
     5  C    0.004588
     6  C   -0.004281
     7  C   -0.225542
     8  C    0.049564
     9  C    0.074617
    10  H    0.001665
    11  H    0.012661
    12  H    0.015902
    13  H    0.013430
    14  H    0.005845
    15  O   -0.242943
    16  O   -0.279161
    17  O   -0.437655
    18  O   -0.438638
    19  O   -0.434499
    20  S    0.886189
    21  S    0.896722
    22  S    0.865091
    23  O   -0.443602
    24  O   -0.382361
    25  O   -0.519557
    26  O   -0.446636
    27  O   -0.427872
    28  O   -0.385734
    29  C    0.448267
    30  C    0.398431
    31  C    0.434765
    32  F   -0.114792
    33  F   -0.100061
    34  F   -0.120511
    35  F   -0.132716
    36  F   -0.131146
    37  F   -0.138824
    38  F   -0.111067
    39  F   -0.114136
    40  F   -0.121122
    41  C    0.042372
    42  H    0.019740
    43  C   -0.118763
    44  C   -0.154420
    45  C   -0.182171
    46  C    0.082271
    47  C    0.039869
    48  C    0.029317
    49  H    0.079065
    50  H    0.070977
    51  H    0.041988
    52  N    0.144366
    53  N    0.132902
    54  N   -0.123831
    55  N   -0.020893
    56  C    0.113749
    57  H    0.083340
    58  Sc   0.431348
    59  C    0.158026
    60  H    0.076243
    61  H    0.016076
    62  C    0.119955
    63  H    0.092616
    64  H    0.069070
    65  H    0.050856
    66  C    0.121489
    67  H    0.085659
    68  H    0.075926
    69  H    0.053907
 Sum of Mulliken charges =  -0.00000
 Mulliken charges with hydrogens summed into heavy atoms:
               1
     1  C    0.009751
     2  C   -0.008514
     3  C    0.011403
     4  C    0.031659
     5  C    0.018018
     6  C    0.001564
     7  C   -0.225542
     8  C    0.049564
     9  C    0.074617
    15  O   -0.242943
    16  O   -0.279161
    17  O   -0.437655
    18  O   -0.438638
    19  O   -0.434499
    20  S    0.886189
    21  S    0.896722
    22  S    0.865091
    23  O   -0.443602
    24  O   -0.382361
    25  O   -0.519557
    26  O   -0.446636
    27  O   -0.427872
    28  O   -0.385734
    29  C    0.448267
    30  C    0.398431
    31  C    0.434765
    32  F   -0.114792
    33  F   -0.100061
    34  F   -0.120511
    35  F   -0.132716
    36  F   -0.131146
    37  F   -0.138824
    38  F   -0.111067
    39  F   -0.114136
    40  F   -0.121122
    41  C    0.062112
    43  C   -0.118763
    44  C   -0.154420
    45  C   -0.182171
    46  C    0.161336
    47  C    0.110846
    48  C    0.071305
    52  N    0.144366
    53  N    0.132902
    54  N   -0.123831
    55  N   -0.020893
    56  C    0.197089
    58  Sc   0.431348
    59  C    0.250344
    62  C    0.332498
    66  C    0.336982
 APT charges:
               1
     1  C   -1.480958
     2  C   -0.069188
     3  C   -0.470125
     4  C   -0.724132
     5  C   -0.570103
     6  C   -0.193293
     7  C   -0.126047
     8  C   -0.445126
     9  C   -0.397872
    10  H   -0.306848
    11  H    0.900072
    12  H    1.758098
    13  H    1.327741
    14  H    0.108029
    15  O   -0.366636
    16  O   -0.401091
    17  O   -0.017544
    18  O   -0.434333
    19  O   -0.767988
    20  S   -0.015205
    21  S    0.096003
    22  S    0.016249
    23  O   -0.405162
    24  O    0.740476
    25  O   -0.542977
    26  O   -0.299630
    27  O   -0.666173
    28  O    0.440561
    29  C   -0.662299
    30  C   -0.713790
    31  C   -0.549113
    32  F    0.312837
    33  F   -0.045548
    34  F    0.765288
    35  F    0.094371
    36  F    0.281897
    37  F    0.749379
    38  F   -0.107611
    39  F    0.853815
    40  F   -0.045970
    41  C   -0.272226
    42  H    0.176529
    43  C   -1.262587
    44  C   -3.021336
    45  C   -1.578396
    46  C   -0.541511
    47  C   -0.878296
    48  C   -0.106534
    49  H    0.157165
    50  H    0.815807
    51  H    0.402866
    52  N    4.092442
    53  N    1.922712
    54  N    0.064365
    55  N    0.286734
    56  C   -0.396925
    57  H    0.359636
    58  Sc   0.380188
    59  C   -0.524008
    60  H    0.350009
    61  H    0.384591
    62  C   -0.552250
    63  H    0.561997
    64  H    0.464755
    65  H    0.312102
    66  C   -0.493011
    67  H    0.449164
    68  H    0.520395
    69  H    0.305568
 Sum of APT charges =  -0.00000
 APT charges with hydrogens summed into heavy atoms:
               1
     1  C   -1.480958
     2  C   -0.376036
     3  C    0.429947
     4  C    1.033967
     5  C    0.757638
     6  C   -0.085264
     7  C   -0.126047
     8  C   -0.445126
     9  C   -0.397872
    15  O   -0.366636
    16  O   -0.401091
    17  O   -0.017544
    18  O   -0.434333
    19  O   -0.767988
    20  S   -0.015205
    21  S    0.096003
    22  S    0.016249
    23  O   -0.405162
    24  O    0.740476
    25  O   -0.542977
    26  O   -0.299630
    27  O   -0.666173
    28  O    0.440561
    29  C   -0.662299
    30  C   -0.713790
    31  C   -0.549113
    32  F    0.312837
    33  F   -0.045548
    34  F    0.765288
    35  F    0.094371
    36  F    0.281897
    37  F    0.749379
    38  F   -0.107611
    39  F    0.853815
    40  F   -0.045970
    41  C   -0.095697
    43  C   -1.262587
    44  C   -3.021336
    45  C   -1.578396
    46  C   -0.384346
    47  C   -0.062490
    48  C    0.296332
    52  N    4.092442
    53  N    1.922712
    54  N    0.064365
    55  N    0.286734
    56  C   -0.037289
    58  Sc   0.380188
    59  C    0.210593
    62  C    0.786605
    66  C    0.782115
 Electronic spatial extent (au):  <R**2>=          34001.3140
 Charge=              0.0000 electrons
 Dipole moment (field-independent basis, Debye):
    X=             16.9378    Y=              0.2633    Z=             -2.9333  Tot=             17.1919
 Quadrupole moment (field-independent basis, Debye-Ang):
   XX=           -338.4389   YY=           -333.9043   ZZ=           -325.4591
   XY=            -31.7012   XZ=              9.6486   YZ=             -2.6295
 Traceless Quadrupole moment (field-independent basis, Debye-Ang):
   XX=             -5.8381   YY=             -1.3036   ZZ=              7.1417
   XY=            -31.7012   XZ=              9.6486   YZ=             -2.6295
 Octapole moment (field-independent basis, Debye-Ang**2):
  XXX=           -237.1781  YYY=            -12.9835  ZZZ=            -81.0541  XYY=            -74.9629
  XXY=           -230.4568  XXZ=            -13.6893  XZZ=            -17.6537  YZZ=            -56.8759
  YYZ=            -21.3108  XYZ=            -16.2953
 Hexadecapole moment (field-independent basis, Debye-Ang**3):
 XXXX=         -28413.1305 YYYY=          -8303.9223 ZZZZ=          -5868.1679 XXXY=          -2032.3500
 XXXZ=            231.9783 YYYX=           -353.8920 YYYZ=             90.8906 ZZZX=           -210.9564
 ZZZY=            -20.2790 XXYY=          -6598.4084 XXZZ=          -5878.7791 YYZZ=          -2309.3543
 XXYZ=            -99.1051 YYXZ=            -60.5686 ZZXY=           -187.0687
 N-N= 9.765337504602D+03 E-N=-3.080126794100D+04  KE= 4.751317879305D+03
  Exact polarizability:   0.000   0.000   0.000   0.000   0.000   0.000
 Approx polarizability: 512.747 -12.862 442.274  -3.368 -40.593 513.433
 D2PCM: PCM CHGder 2nd derivatives, FixD1E=F FixD2E=F DoIter=F DoCFld=F I1PDM=0
 Calling FoFJK, ICntrl=    100147 FMM=F ISym2X=0 I1Cent= 0 IOpClX= 0 NMat=1 NMatS=1 NMatT=0.
 -------------------------------------------------------------------
 Center     Atomic                   Forces (Hartrees/Bohr)
 Number     Number              X              Y              Z
 -------------------------------------------------------------------
      1        6          -0.000000425   -0.000000812    0.000000728
      2        6          -0.000000644    0.000001559    0.000002932
      3        6          -0.000000128   -0.000001313    0.000003378
      4        6          -0.000000916    0.000000515    0.000002682
      5        6           0.000000211    0.000000584    0.000003334
      6        6          -0.000000706   -0.000000491    0.000002629
      7        6          -0.000000305   -0.000001140   -0.000000127
      8        6           0.000000290   -0.000004625   -0.000000549
      9        6          -0.000002096   -0.000000914   -0.000001219
     10        1          -0.000001122   -0.000001347    0.000001638
     11        1          -0.000001767   -0.000001015    0.000002375
     12        1          -0.000000555   -0.000000375    0.000003496
     13        1           0.000000630    0.000001178    0.000003646
     14        1           0.000001361    0.000001743    0.000002863
     15        8           0.000002099   -0.000003196   -0.000001725
     16        8           0.000002009    0.000007014    0.000000383
     17        8           0.000000039   -0.000002522   -0.000001994
     18        8           0.000001035    0.000001499    0.000001312
     19        8          -0.000001666    0.000002394   -0.000001864
     20       16          -0.000000426    0.000001206   -0.000004073
     21       16          -0.000002738    0.000002252   -0.000003549
     22       16           0.000000103    0.000002218    0.000006618
     23        8           0.000000353   -0.000000873   -0.000004558
     24        8           0.000001480   -0.000000551   -0.000003280
     25        8           0.000002323   -0.000006580   -0.000002861
     26        8           0.000000397   -0.000001796   -0.000004791
     27        8          -0.000002053    0.000003527   -0.000000102
     28        8           0.000001360   -0.000000644   -0.000003170
     29        6          -0.000001739   -0.000001032   -0.000002401
     30        6          -0.000002052   -0.000002269   -0.000004585
     31        6           0.000003160    0.000001617   -0.000002051
     32        9          -0.000000553    0.000000341   -0.000002342
     33        9           0.000001629    0.000000436   -0.000005128
     34        9           0.000001579    0.000000890   -0.000002820
     35        9          -0.000002283   -0.000001887   -0.000005130
     36        9          -0.000001562   -0.000001520   -0.000003022
     37        9          -0.000003061   -0.000002681   -0.000004403
     38        9           0.000003624    0.000001329   -0.000001895
     39        9           0.000001632    0.000002226   -0.000005129
     40        9          -0.000000386   -0.000001817   -0.000002642
     41        6           0.000001711    0.000000693    0.000000861
     42        1           0.000000275    0.000000691    0.000001322
     43        6          -0.000000863   -0.000001335    0.000003501
     44        6           0.000002475    0.000001766    0.000004103
     45        6          -0.000001428   -0.000000983    0.000003878
     46        6          -0.000000220    0.000000081    0.000000466
     47        6           0.000000651    0.000002489    0.000002371
     48        6          -0.000000184    0.000000469    0.000001483
     49        1          -0.000000510   -0.000000102    0.000001060
     50        1           0.000001569    0.000001504    0.000002425
     51        1           0.000000656    0.000001357    0.000001271
     52        7          -0.000001611    0.000000240    0.000005874
     53        7          -0.000002299   -0.000001081    0.000003799
     54        7           0.000000030    0.000003974    0.000002223
     55        7          -0.000001296   -0.000004201    0.000000835
     56        6           0.000001321    0.000002869    0.000001890
     57        1          -0.000004225   -0.000004823    0.000004186
     58       21           0.000006996   -0.000000258   -0.000006133
     59        6          -0.000002587   -0.000003448    0.000001221
     60        1          -0.000000991   -0.000000312   -0.000000942
     61        1          -0.000002949    0.000002730   -0.000002352
     62        6           0.000003983    0.000002359    0.000001136
     63        1           0.000001423    0.000004105    0.000001365
     64        1           0.000001413    0.000001488    0.000000383
     65        1           0.000001649    0.000002069   -0.000000568
     66        6          -0.000003532   -0.000001755    0.000001861
     67        1          -0.000000919    0.000000178   -0.000000976
     68        1           0.000003602   -0.000001964    0.000001554
     69        1          -0.000002267   -0.000001927   -0.000000702
 -------------------------------------------------------------------
 Cartesian Forces:  Max     0.000007014 RMS     0.000002438
 IRC-IRC-IRC-IRC-IRC-IRC-IRC-IRC-IRC-IRC-IRC-IRC-IRC-IRC-IRC-IRC-IRC-IRC
          ******** Start new reaction path calculation ********
 Supplied step size of   0.1000 bohr.
    Integration on MW PES will use step size of   0.3134 sqrt(amu)*bohr.
 Point Number:   0          Path Number:   1
 Calculating another point on the path.
 IRC-IRC-IRC-IRC-IRC-IRC-IRC-IRC-IRC-IRC-IRC-IRC-IRC-IRC-IRC-IRC-IRC-IRC
 Symmetry turned off by external request.
 Stoichiometry    C23H18F9N4O11S3Sc
 Framework group  C1[X(C23H18F9N4O11S3Sc)]
 Deg. of freedom   201
 Full point group                 C1      NOp   1
                          Input orientation:                          
 ---------------------------------------------------------------------
 Center     Atomic      Atomic             Coordinates (Angstroms)
 Number     Number       Type             X           Y           Z
 ---------------------------------------------------------------------
      1          6           0        5.962619   -0.573056    0.572913
      2          6           0        6.189038   -0.971123    1.898480
      3          6           0        7.401145   -1.563752    2.259454
      4          6           0        8.398234   -1.767034    1.303339
      5          6           0        8.180463   -1.374748   -0.019634
      6          6           0        6.970355   -0.782153   -0.380357
      7          6           0        2.053522    0.030296    0.388888
      8          6           0        1.591442   -0.290854   -0.980297
      9          6           0        1.001125   -0.052601    1.436946
     10          1           0        5.423535   -0.821680    2.663450
     11          1           0        7.563939   -1.869497    3.295213
     12          1           0        9.343898   -2.233396    1.588457
     13          1           0        8.953485   -1.532872   -0.774726
     14          1           0        6.798149   -0.475465   -1.416242
     15          8           0       -0.193343    0.165863    1.172468
     16          8           0        0.421299   -0.027708   -1.346748
     17          8           0       -3.561926    1.377662    2.327375
     18          8           0       -2.486152    0.809473   -2.135272
     19          8           0       -0.638911   -2.253625    0.044035
     20         16           0       -1.496861   -2.973627   -0.947520
     21         16           0       -3.302572   -0.047509    2.276905
     22         16           0       -2.530838    2.173744   -1.513349
     23          8           0       -2.274773   -1.879096   -1.615857
     24          8           0       -2.206998   -4.145547   -0.513551
     25          8           0       -2.973776   -0.526025    0.867148
     26          8           0       -2.451071   -0.653190    3.281377
     27          8           0       -1.816281    1.984577   -0.211050
     28          8           0       -2.164684    3.303764   -2.326800
     29          6           0       -4.296389    2.421702   -1.038217
     30          6           0       -4.939092   -0.858332    2.476330
     31          6           0       -0.307222   -3.535950   -2.255938
     32          9           0       -4.359215    3.399909   -0.159430
     33          9           0       -4.773737    1.310769   -0.518775
     34          9           0       -4.982213    2.742986   -2.117679
     35          9           0       -4.809690   -2.170310    2.369501
     36          9           0       -5.779651   -0.426298    1.551430
     37          9           0       -5.419317   -0.563558    3.673802
     38          9           0       -0.146415   -2.573090   -3.145611
     39          9           0       -0.784778   -4.610711   -2.845204
     40          9           0        0.854711   -3.812232   -1.692130
     41          6           0        4.675290    0.094672    0.134393
     42          1           0        4.612205   -0.000287   -0.958567
     43          6           0        4.714806    1.643207    0.352494
     44          6           0        5.865872    2.239969   -0.354289
     45          6           0        4.829419    1.950131    1.795597
     46          6           0        1.129441    2.628235   -0.038930
     47          6           0        2.388964    2.800074   -2.076475
     48          6           0        1.168402    3.010222   -1.337471
     49          1           0        0.251645    2.767454    0.590604
     50          1           0        2.444190    2.996970   -3.149352
     51          1           0        0.311815    3.477895   -1.826383
     52          7           0        6.799661    2.667997   -0.885264
     53          7           0        4.885874    2.121787    2.938477
     54          7           0        3.470365    2.218347   -0.176521
     55          7           0        3.494340    2.431053   -1.503623
     56          6           0        2.290148    1.932231    0.504533
     57          1           0        2.417870    1.981460    1.592374
     58         21           0       -1.473592   -0.198399   -0.452863
     59          6           0        3.429064   -0.498187    0.814563
     60          1           0        3.469713   -1.592390    0.692409
     61          1           0        3.534855   -0.310525    1.891645
     62          6           0        2.489526   -0.940054   -1.985114
     63          1           0        3.161417   -0.187802   -2.426559
     64          1           0        3.110461   -1.726241   -1.533948
     65          1           0        1.874938   -1.349138   -2.793510
     66          6           0        1.355730   -0.315558    2.860951
     67          1           0        1.804667   -1.317576    2.950563
     68          1           0        2.102036    0.406347    3.231324
     69          1           0        0.439129   -0.261048    3.459307
 ---------------------------------------------------------------------
 Rotational constants (GHZ):           0.0818127           0.0342662           0.0319076
 Basis read from rwf:  (5D, 7F)
   847 basis functions,  1514 primitive gaussians,   904 cartesian basis functions
   211 alpha electrons      211 beta electrons
       nuclear repulsion energy      9766.3966211513 Hartrees.
 NAtoms=   69 NActive=   69 NUniq=   69 SFac= 1.00D+00 NAtFMM=   60 NAOKFM=T Big=T
 Integral buffers will be    131072 words long.
 Raffenetti 2 integral format.
 Two-electron integral symmetry is turned off.
 Force inversion solution in PCM.
 ------------------------------------------------------------------------------
 Polarizable Continuum Model (PCM)
 =================================
 Model                : PCM.
 Atomic radii         : SMD-Coulomb.
 Polarization charges : Total charges.
 Charge compensation  : None.
 Solution method      : Matrix inversion.
 Cavity type          : VdW (van der Waals Surface) (Alpha=1.000).
 Cavity algorithm     : GePol (No added spheres)
                        Default sphere list used, NSphG=   69.
                        Lebedev-Laikov grids with approx.  5.0 points / Ang**2.
                        Smoothing algorithm: York/Karplus (Gamma=1.0000).
                        Polarization charges: spherical gaussians, with
                                              point-specific exponents (IZeta= 3).
                        Self-potential: point-specific (ISelfS= 7).
                        Self-field    : sphere-specific E.n sum rule (ISelfD= 2).
 1st derivatives      : Analytical E(r).r(x)/FMM algorithm (CHGder, D1EAlg=3).
                        Cavity 1st derivative terms included.
 Solvent              : DiChloroEthane, Eps=  10.125000 Eps(inf)=   2.087447
 ------------------------------------------------------------------------------
 ------------------------------------------------------------------------------
 Atomic radii for non-electrostatic terms: SMD-CDS.
 ------------------------------------------------------------------------------
 Nuclear repulsion after PCM non-electrostatic terms =     9766.4009143812 Hartrees.
 One-electron integrals computed using PRISM.
 NBasis=   847 RedAO= T EigKep=  2.27D-04  NBF=   847
 NBsUse=   847 1.00D-06 EigRej= -1.00D+00 NBFU=   847
 Initial guess from the checkpoint file:  "ts-ketone.chk"
 B after Tr=     0.226658    0.011608    0.025144
         Rot=    1.000000   -0.000004    0.000000    0.000001 Ang=  -0.00 deg.
 ExpMin= 3.01D-02 ExpMax= 1.92D+05 ExpMxC= 1.85D+03 IAcc=3 IRadAn=         5 AccDes= 0.00D+00
 Harris functional with IExCor= 1009 and IRadAn=       5 diagonalized for initial guess.
 HarFok:  IExCor= 1009 AccDes= 0.00D+00 IRadAn=         5 IDoV= 1 UseB2=F ITyADJ=14
 ICtDFT=  3500011 ScaDFX=  1.000000  1.000000  1.000000  1.000000
 FoFCou: FMM=F IPFlag=           0 FMFlag=      100000 FMFlg1=        2001
         NFxFlg=           0 DoJE=T BraDBF=F KetDBF=T FulRan=T
         wScrn=  0.000000 ICntrl=       500 IOpCl=  0 I1Cent=   200000004 NGrid=           0
         NMat0=    1 NMatS0=      1 NMatT0=    0 NMatD0=    1 NMtDS0=    0 NMtDT0=    0
 Symmetry not used in FoFCou.
 Requested convergence on RMS density matrix=1.00D-08 within 128 cycles.
 Requested convergence on MAX density matrix=1.00D-06.
 Requested convergence on             energy=1.00D-06.
 No special actions if energy rises.
 Inv3:  Mode=1 IEnd=    71326128.
 Iteration    1 A*A^-1 deviation from unit magnitude is 2.78D-14 for   4863.
 Iteration    1 A*A^-1 deviation from orthogonality  is 5.75D-15 for   4863   4266.
 Iteration    1 A^-1*A deviation from unit magnitude is 2.78D-14 for   4863.
 Iteration    1 A^-1*A deviation from orthogonality  is 1.83D-14 for   1644   1639.
 Error on total polarization charges =  0.03397
 SCF Done:  E(RMN15) =  -4781.71084472     A.U. after   12 cycles
            NFock= 12  Conv=0.46D-08     -V/T= 2.0064
 SMD-CDS (non-electrostatic) energy       (kcal/mol) =       2.69
 (included in total energy above)
 DoSCS=F DFT=T ScalE2(SS,OS)=  1.000000  1.000000
 Range of M.O.s used for correlation:     1   847
 NBasis=   847 NAE=   211 NBE=   211 NFC=     0 NFV=     0
 NROrb=    847 NOA=   211 NOB=   211 NVA=   636 NVB=   636

 **** Warning!!: The largest alpha MO coefficient is  0.11147618D+02

 Symmetrizing basis deriv contribution to polar:
 IMax=3 JMax=2 DiffMx= 0.00D+00
 D1PCM: PCM CHGder 1st derivatives, ID1Alg=3 FixD1E=F DoIter=F DoCFld=F I1PDM=0.
 Calling FoFJK, ICntrl=      2147 FMM=T ISym2X=0 I1Cent= 0 IOpClX= 0 NMat=1 NMatS=1 NMatT=0.
 -------------------------------------------------------------------
 Center     Atomic                   Forces (Hartrees/Bohr)
 Number     Number              X              Y              Z
 -------------------------------------------------------------------
      1        6           0.000006640   -0.000106578    0.000015273
      2        6           0.000019525   -0.000046629    0.000023514
      3        6           0.000029127   -0.000019328    0.000022113
      4        6           0.000023417   -0.000010316    0.000016162
      5        6           0.000025396   -0.000010434    0.000015262
      6        6           0.000013143   -0.000050301    0.000021105
      7        6           0.000934953    0.004189548    0.000032937
      8        6           0.000200097    0.000673853   -0.000497384
      9        6          -0.000175313    0.000482444    0.000502071
     10        1           0.000001498   -0.000002664    0.000003796
     11        1           0.000003006   -0.000000773    0.000004508
     12        1           0.000001983    0.000000352    0.000004731
     13        1           0.000003878    0.000002711    0.000005317
     14        1           0.000002037   -0.000000362    0.000004627
     15        8           0.000265110   -0.000226769    0.000068468
     16        8           0.000315878   -0.000121071    0.000131230
     17        8           0.000014311    0.000001290   -0.000049610
     18        8           0.000095290   -0.000087334    0.000065851
     19        8           0.000025456    0.000205947   -0.000075038
     20       16           0.000026476   -0.000016522   -0.000047596
     21       16          -0.000085321    0.000039849    0.000113047
     22       16           0.000027466    0.000044523    0.000026327
     23        8           0.000037796    0.000092919    0.000029887
     24        8           0.000015750    0.000054127    0.000059863
     25        8           0.000132934    0.000021048   -0.000030782
     26        8           0.000063812   -0.000004675   -0.000066502
     27        8          -0.000021669   -0.000246232    0.000050665
     28        8           0.000011055   -0.000036106    0.000013162
     29        6          -0.000022132   -0.000000499    0.000002020
     30        6          -0.000029930   -0.000023633   -0.000011326
     31        6           0.000019981   -0.000024833   -0.000027365
     32        9           0.000015642   -0.000018933   -0.000002970
     33        9           0.000017743   -0.000018445   -0.000001080
     34        9           0.000022164   -0.000012016    0.000001528
     35        9           0.000015814   -0.000003874   -0.000017003
     36        9           0.000016841   -0.000000395   -0.000016543
     37        9           0.000020225    0.000000079   -0.000021329
     38        9           0.000003816    0.000027790    0.000031330
     39        9          -0.000010747    0.000013270    0.000004952
     40        9          -0.000011559   -0.000006240    0.000012785
     41        6           0.000161820   -0.000000720    0.000035790
     42        1           0.000010176    0.000001378    0.000002715
     43        6          -0.000094899    0.000017314   -0.000141780
     44        6           0.000018968   -0.000021915   -0.000002976
     45        6          -0.000006428    0.000005257   -0.000042488
     46        6          -0.000110180   -0.000717870   -0.000016633
     47        6           0.000042854   -0.000282592   -0.000073292
     48        6           0.000122819    0.000247863    0.000354205
     49        1           0.000037120    0.000048284    0.000016168
     50        1          -0.000005207   -0.000021895   -0.000009219
     51        1           0.000090385    0.000141297    0.000102288
     52        7           0.000025660    0.000010730    0.000013419
     53        7          -0.000017776    0.000010657   -0.000033870
     54        7           0.000072574    0.000336823    0.000300138
     55        7           0.000078283   -0.000303708   -0.000183427
     56        6          -0.000669555   -0.004505339   -0.000313714
     57        1          -0.000096819   -0.000074432   -0.000312084
     58       21          -0.001426391   -0.000049744   -0.000325162
     59        6          -0.000123073    0.000611526   -0.000080677
     60        1          -0.000183701    0.000129202   -0.000054475
     61        1           0.000008300    0.000019616    0.000000013
     62        6          -0.000064656   -0.000143553    0.000209816
     63        1           0.000022619    0.000008750    0.000034251
     64        1          -0.000016059    0.000003354    0.000043883
     65        1           0.000006723   -0.000005793    0.000005775
     66        6           0.000022353   -0.000133362    0.000075304
     67        1           0.000003252   -0.000011867   -0.000047635
     68        1           0.000010642   -0.000034565    0.000004037
     69        1           0.000008606   -0.000039482    0.000021624
 -------------------------------------------------------------------
 Cartesian Forces:  Max     0.004505339 RMS     0.000466774
 IRC-IRC-IRC-IRC-IRC-IRC-IRC-IRC-IRC-IRC-IRC-IRC-IRC-IRC-IRC-IRC-IRC-IRC
 Pt  1 Step number   1 out of a maximum of 500
 Modified Bulirsch-Stoer Extrapolation Cycles:
    EPS =    0.000010000000000
      PEZero:  N= 2 I= 1 D=  8.16D-04 Err=  1.69D-03
      PEZero:  N= 3 I= 2 D=  8.16D-04 Err=  1.12D-03
      PEZero:  N= 3 I= 1 D=  1.63D-03 Err=  2.16D-06
 Maximum DWI energy   std dev =  0.000001578 at pt     1
 Maximum DWI gradient std dev =  0.085074608 at pt     1
 Point Number:   1          Path Number:   1
   CHANGE IN THE REACTION COORDINATE =    0.31333
   NET REACTION COORDINATE UP TO THIS POINT =    0.31333
  # OF POINTS ALONG THE PATH =   1
  # OF STEPS =   1

 Calculating another point on the path.
 IRC-IRC-IRC-IRC-IRC-IRC-IRC-IRC-IRC-IRC-IRC-IRC-IRC-IRC-IRC-IRC-IRC-IRC
 Symmetry turned off by external request.
 Stoichiometry    C23H18F9N4O11S3Sc
 Framework group  C1[X(C23H18F9N4O11S3Sc)]
 Deg. of freedom   201
 Full point group                 C1      NOp   1
                          Input orientation:                          
 ---------------------------------------------------------------------
 Center     Atomic      Atomic             Coordinates (Angstroms)
 Number     Number       Type             X           Y           Z
 ---------------------------------------------------------------------
      1          6           0        5.962609   -0.573840    0.573054
      2          6           0        6.189146   -0.971480    1.898641
      3          6           0        7.401342   -1.563895    2.259633
      4          6           0        8.398401   -1.767115    1.303499
      5          6           0        8.180656   -1.374814   -0.019492
      6          6           0        6.970469   -0.782511   -0.380198
      7          6           0        2.059635    0.059990    0.389032
      8          6           0        1.592357   -0.285847   -0.983650
      9          6           0        0.999921   -0.049197    1.440213
     10          1           0        5.423699   -0.821862    2.663655
     11          1           0        7.564257   -1.869505    3.295424
     12          1           0        9.344111   -2.233346    1.588686
     13          1           0        8.953839   -1.532675   -0.774474
     14          1           0        6.798241   -0.475590   -1.416005
     15          8           0       -0.191838    0.164655    1.172892
     16          8           0        0.423284   -0.028438   -1.345991
     17          8           0       -3.561851    1.377670    2.327107
     18          8           0       -2.485658    0.808992   -2.134933
     19          8           0       -0.638766   -2.252509    0.043661
     20         16           0       -1.496812   -2.973698   -0.947653
     21         16           0       -3.302791   -0.047408    2.277210
     22         16           0       -2.530748    2.173878   -1.513281
     23          8           0       -2.274585   -1.878603   -1.615709
     24          8           0       -2.206901   -4.145241   -0.513239
     25          8           0       -2.973073   -0.525915    0.866970
     26          8           0       -2.450734   -0.653208    3.281029
     27          8           0       -1.816405    1.983261   -0.210781
     28          8           0       -2.164623    3.303552   -2.326709
     29          6           0       -4.296523    2.421708   -1.038205
     30          6           0       -4.939308   -0.858493    2.476269
     31          6           0       -0.307087   -3.536132   -2.256139
     32          9           0       -4.359151    3.399826   -0.159444
     33          9           0       -4.773663    1.310677   -0.518778
     34          9           0       -4.982117    2.742933   -2.117682
     35          9           0       -4.809616   -2.170329    2.369422
     36          9           0       -5.779577   -0.426297    1.551348
     37          9           0       -5.419225   -0.563558    3.673705
     38          9           0       -0.146392   -2.572962   -3.145471
     39          9           0       -0.784833   -4.610649   -2.845179
     40          9           0        0.854660   -3.812263   -1.692066
     41          6           0        4.676411    0.094831    0.134607
     42          1           0        4.613134   -0.000306   -0.958291
     43          6           0        4.713926    1.643339    0.351510
     44          6           0        5.865992    2.239819   -0.354309
     45          6           0        4.829397    1.950169    1.795301
     46          6           0        1.128442    2.623729   -0.039714
     47          6           0        2.389965    2.797817   -2.076920
     48          6           0        1.169161    3.011873   -1.334173
     49          1           0        0.253432    2.771310    0.592032
     50          1           0        2.443645    2.994970   -3.149906
     51          1           0        0.316602    3.490788   -1.819434
     52          7           0        6.799801    2.668054   -0.885170
     53          7           0        4.885746    2.121849    2.938259
     54          7           0        3.471703    2.220335   -0.174689
     55          7           0        3.494320    2.429383   -1.505030
     56          6           0        2.284907    1.899437    0.500836
     57          1           0        2.414676    1.979218    1.588361
     58         21           0       -1.476305   -0.198502   -0.453496
     59          6           0        3.428446   -0.493344    0.814118
     60          1           0        3.454951   -1.587180    0.687373
     61          1           0        3.535711   -0.309156    1.891629
     62          6           0        2.489231   -0.940934   -1.983789
     63          1           0        3.162456   -0.188549   -2.423471
     64          1           0        3.109150   -1.726228   -1.529915
     65          1           0        1.875456   -1.349614   -2.792921
     66          6           0        1.355850   -0.316538    2.861446
     67          1           0        1.805114   -1.318962    2.946329
     68          1           0        2.103303    0.404001    3.231749
     69          1           0        0.439960   -0.264075    3.461037
 ---------------------------------------------------------------------
 Rotational constants (GHZ):           0.0818406           0.0342655           0.0319108
 Basis read from rwf:  (5D, 7F)
   847 basis functions,  1514 primitive gaussians,   904 cartesian basis functions
   211 alpha electrons      211 beta electrons
       nuclear repulsion energy      9767.4734751011 Hartrees.
 NAtoms=   69 NActive=   69 NUniq=   69 SFac= 1.00D+00 NAtFMM=   60 NAOKFM=T Big=T
 Integral buffers will be    131072 words long.
 Raffenetti 2 integral format.
 Two-electron integral symmetry is turned off.
 Force inversion solution in PCM.
 ------------------------------------------------------------------------------
 Polarizable Continuum Model (PCM)
 =================================
 Model                : PCM.
 Atomic radii         : SMD-Coulomb.
 Polarization charges : Total charges.
 Charge compensation  : None.
 Solution method      : Matrix inversion.
 Cavity type          : VdW (van der Waals Surface) (Alpha=1.000).
 Cavity algorithm     : GePol (No added spheres)
                        Default sphere list used, NSphG=   69.
                        Lebedev-Laikov grids with approx.  5.0 points / Ang**2.
                        Smoothing algorithm: York/Karplus (Gamma=1.0000).
                        Polarization charges: spherical gaussians, with
                                              point-specific exponents (IZeta= 3).
                        Self-potential: point-specific (ISelfS= 7).
                        Self-field    : sphere-specific E.n sum rule (ISelfD= 2).
 1st derivatives      : Analytical E(r).r(x)/FMM algorithm (CHGder, D1EAlg=3).
                        Cavity 1st derivative terms included.
 Solvent              : DiChloroEthane, Eps=  10.125000 Eps(inf)=   2.087447
 ------------------------------------------------------------------------------
 ------------------------------------------------------------------------------
 Atomic radii for non-electrostatic terms: SMD-CDS.
 ------------------------------------------------------------------------------
 Nuclear repulsion after PCM non-electrostatic terms =     9767.4777623938 Hartrees.
 One-electron integrals computed using PRISM.
 NBasis=   847 RedAO= T EigKep=  2.26D-04  NBF=   847
 NBsUse=   847 1.00D-06 EigRej= -1.00D+00 NBFU=   847
 Initial guess from the checkpoint file:  "ts-ketone.chk"
 B after Tr=     0.000003    0.000027    0.000016
         Rot=    1.000000   -0.000005    0.000003    0.000002 Ang=  -0.00 deg.
 ExpMin= 3.01D-02 ExpMax= 1.92D+05 ExpMxC= 1.85D+03 IAcc=3 IRadAn=         5 AccDes= 0.00D+00
 Harris functional with IExCor= 1009 and IRadAn=       5 diagonalized for initial guess.
 HarFok:  IExCor= 1009 AccDes= 0.00D+00 IRadAn=         5 IDoV= 1 UseB2=F ITyADJ=14
 ICtDFT=  3500011 ScaDFX=  1.000000  1.000000  1.000000  1.000000
 FoFCou: FMM=F IPFlag=           0 FMFlag=      100000 FMFlg1=        2001
         NFxFlg=           0 DoJE=T BraDBF=F KetDBF=T FulRan=T
         wScrn=  0.000000 ICntrl=       500 IOpCl=  0 I1Cent=   200000004 NGrid=           0
         NMat0=    1 NMatS0=      1 NMatT0=    0 NMatD0=    1 NMtDS0=    0 NMtDT0=    0
 Symmetry not used in FoFCou.
 Requested convergence on RMS density matrix=1.00D-08 within 128 cycles.
 Requested convergence on MAX density matrix=1.00D-06.
 Requested convergence on             energy=1.00D-06.
 No special actions if energy rises.
 Inv3:  Mode=1 IEnd=    71267628.
 Iteration    1 A*A^-1 deviation from unit magnitude is 1.78D-14 for   4861.
 Iteration    1 A*A^-1 deviation from orthogonality  is 4.36D-15 for   4861   4263.
 Iteration    1 A^-1*A deviation from unit magnitude is 1.78D-14 for   4861.
 Iteration    1 A^-1*A deviation from orthogonality  is 1.33D-14 for   1644   1639.
 Error on total polarization charges =  0.03403
 SCF Done:  E(RMN15) =  -4781.71169431     A.U. after   12 cycles
            NFock= 12  Conv=0.48D-08     -V/T= 2.0064
 SMD-CDS (non-electrostatic) energy       (kcal/mol) =       2.69
 (included in total energy above)
 DoSCS=F DFT=T ScalE2(SS,OS)=  1.000000  1.000000
 Range of M.O.s used for correlation:     1   847
 NBasis=   847 NAE=   211 NBE=   211 NFC=     0 NFV=     0
 NROrb=    847 NOA=   211 NOB=   211 NVA=   636 NVB=   636

 **** Warning!!: The largest alpha MO coefficient is  0.11631403D+02

 Symmetrizing basis deriv contribution to polar:
 IMax=3 JMax=2 DiffMx= 0.00D+00
 D1PCM: PCM CHGder 1st derivatives, ID1Alg=3 FixD1E=F DoIter=F DoCFld=F I1PDM=0.
 Calling FoFJK, ICntrl=      2147 FMM=T ISym2X=0 I1Cent= 0 IOpClX= 0 NMat=1 NMatS=1 NMatT=0.
 -------------------------------------------------------------------
 Center     Atomic                   Forces (Hartrees/Bohr)
 Number     Number              X              Y              Z
 -------------------------------------------------------------------
      1        6           0.000019345   -0.000199319    0.000030768
      2        6           0.000031001   -0.000096677    0.000042908
      3        6           0.000053644   -0.000038077    0.000044518
      4        6           0.000048032   -0.000021853    0.000036524
      5        6           0.000052114   -0.000019267    0.000032433
      6        6           0.000030384   -0.000097070    0.000040912
      7        6           0.001653911    0.007324501    0.000023937
      8        6           0.000472775    0.001326376   -0.000807468
      9        6          -0.000179098    0.000979020    0.000865125
     10        1           0.000005776   -0.000002296    0.000002362
     11        1           0.000008667    0.000001440    0.000001623
     12        1           0.000006025    0.000001335    0.000001122
     13        1           0.000006684    0.000002683    0.000001684
     14        1           0.000000215   -0.000004435    0.000002192
     15        8           0.000381339   -0.000448134    0.000110420
     16        8           0.000476508   -0.000255758    0.000213158
     17        8           0.000022962    0.000011069   -0.000091993
     18        8           0.000170344   -0.000157655    0.000113971
     19        8           0.000037288    0.000373449   -0.000141171
     20       16           0.000053661   -0.000014453   -0.000081308
     21       16          -0.000145118    0.000061977    0.000202104
     22       16           0.000063442    0.000055948    0.000052555
     23        8           0.000062185    0.000166700    0.000053197
     24        8           0.000026634    0.000101669    0.000117916
     25        8           0.000228619    0.000049082   -0.000041799
     26        8           0.000118748   -0.000004058   -0.000117888
     27        8          -0.000038094   -0.000464299    0.000091735
     28        8           0.000028615   -0.000062941    0.000031892
     29        6          -0.000033570   -0.000002179    0.000008379
     30        6          -0.000053570   -0.000040667   -0.000010130
     31        6           0.000034095   -0.000037056   -0.000043975
     32        9           0.000028282   -0.000034814    0.000000303
     33        9           0.000030922   -0.000039188    0.000006007
     34        9           0.000037930   -0.000022176    0.000001501
     35        9           0.000032867   -0.000009346   -0.000028884
     36        9           0.000031627    0.000002393   -0.000034451
     37        9           0.000038079    0.000002018   -0.000033088
     38        9           0.000006793    0.000052440    0.000059305
     39        9          -0.000023461    0.000013058    0.000007910
     40        9          -0.000017996   -0.000013019    0.000027153
     41        6           0.000281700   -0.000024264    0.000061914
     42        1           0.000017600   -0.000001579   -0.000000244
     43        6          -0.000133141    0.000031642   -0.000250375
     44        6           0.000024320   -0.000044689   -0.000010598
     45        6          -0.000018025   -0.000003547   -0.000083348
     46        6          -0.000129230   -0.001480210    0.000069764
     47        6           0.000006088   -0.000524491   -0.000113878
     48        6           0.000302827    0.000482270    0.000618550
     49        1           0.000080948    0.000077167    0.000028593
     50        1          -0.000015017   -0.000048677   -0.000020984
     51        1           0.000181828    0.000260677    0.000195897
     52        7           0.000044438    0.000018688    0.000024183
     53        7          -0.000036815    0.000021284   -0.000070492
     54        7          -0.000039110    0.000528519    0.000569182
     55        7           0.000199609   -0.000605503   -0.000297505
     56        6          -0.001096897   -0.007806842   -0.000672321
     57        1          -0.000189229   -0.000139339   -0.000623648
     58       21          -0.002678880   -0.000105313   -0.000622047
     59        6          -0.000298163    0.001317307   -0.000146159
     60        1          -0.000342613    0.000258022   -0.000095712
     61        1           0.000022116    0.000021369   -0.000001254
     62        6          -0.000108771   -0.000246487    0.000387972
     63        1           0.000034508    0.000005661    0.000057844
     64        1          -0.000032734    0.000005153    0.000074128
     65        1           0.000010402   -0.000021268    0.000013881
     66        6           0.000064189   -0.000265831    0.000145389
     67        1           0.000000866   -0.000018222   -0.000086777
     68        1           0.000015778   -0.000059070    0.000014189
     69        1           0.000022796   -0.000072855    0.000042396
 -------------------------------------------------------------------
 Cartesian Forces:  Max     0.007806842 RMS     0.000822164
 IRC-IRC-IRC-IRC-IRC-IRC-IRC-IRC-IRC-IRC-IRC-IRC-IRC-IRC-IRC-IRC-IRC-IRC
 Pt  2 Step number   1 out of a maximum of 500
 Modified Bulirsch-Stoer Extrapolation Cycles:
    EPS =    0.000010000000000
      PEZero:  N= 2 I= 1 D=  1.63D-03 Err=  1.96D-05
      PEZero:  N= 3 I= 2 D=  1.63D-03 Err=  1.30D-05
      PEZero:  N= 3 I= 1 D=  3.26D-03 Err=  6.75D-08
 Maximum DWI energy   std dev =  0.000006754 at pt    73
 Maximum DWI gradient std dev =  0.064331623 at pt    27
 Point Number:   2          Path Number:   1
   CHANGE IN THE REACTION COORDINATE =    0.31320
[...]
 Alpha  occ. eigenvalues --   -1.07572  -1.06720  -1.06449  -1.05547  -1.04758
 Alpha  occ. eigenvalues --   -1.03387  -1.03301  -1.00993  -0.98003  -0.96945
 Alpha  occ. eigenvalues --   -0.93647  -0.91598  -0.88788  -0.86044  -0.81827
 Alpha  occ. eigenvalues --   -0.80215  -0.79638  -0.79128  -0.78818  -0.78683
 Alpha  occ. eigenvalues --   -0.78002  -0.76637  -0.75753  -0.74505  -0.72148
 Alpha  occ. eigenvalues --   -0.71801  -0.70246  -0.69410  -0.68403  -0.67689
 Alpha  occ. eigenvalues --   -0.67675  -0.67625  -0.67581  -0.66344  -0.66019
 Alpha  occ. eigenvalues --   -0.65942  -0.64618  -0.63685  -0.63243  -0.62840
 Alpha  occ. eigenvalues --   -0.61908  -0.61672  -0.60829  -0.59671  -0.58305
 Alpha  occ. eigenvalues --   -0.57417  -0.57005  -0.56581  -0.56292  -0.56213
 Alpha  occ. eigenvalues --   -0.55872  -0.55684  -0.55400  -0.55148  -0.54993
 Alpha  occ. eigenvalues --   -0.54366  -0.54316  -0.54048  -0.53891  -0.53836
 Alpha  occ. eigenvalues --   -0.53488  -0.53352  -0.52962  -0.52623  -0.51934
 Alpha  occ. eigenvalues --   -0.51780  -0.51621  -0.51564  -0.51418  -0.51104
 Alpha  occ. eigenvalues --   -0.50762  -0.50646  -0.50168  -0.49926  -0.49471
 Alpha  occ. eigenvalues --   -0.49146  -0.49103  -0.48906  -0.48152  -0.48090
 Alpha  occ. eigenvalues --   -0.47858  -0.47551  -0.47322  -0.46738  -0.46458
 Alpha  occ. eigenvalues --   -0.46290  -0.45863  -0.45472  -0.45008  -0.44801
 Alpha  occ. eigenvalues --   -0.44188  -0.43743  -0.43363  -0.43287  -0.42869
 Alpha  occ. eigenvalues --   -0.42459  -0.42157  -0.42098  -0.41993  -0.41773
 Alpha  occ. eigenvalues --   -0.41464  -0.41354  -0.41026  -0.40667  -0.40139
 Alpha  occ. eigenvalues --   -0.40075  -0.39679  -0.39568  -0.39398  -0.39209
 Alpha  occ. eigenvalues --   -0.38721  -0.38543  -0.38121  -0.37785  -0.37750
 Alpha  occ. eigenvalues --   -0.37059  -0.36905  -0.36538  -0.36350  -0.35923
 Alpha  occ. eigenvalues --   -0.34856  -0.32703  -0.31642  -0.29877  -0.29817
 Alpha  occ. eigenvalues --   -0.27588
 Alpha virt. eigenvalues --   -0.10765  -0.06736  -0.04533  -0.03300  -0.00598
 Alpha virt. eigenvalues --    0.00233   0.00508   0.00843   0.00939   0.02917
 Alpha virt. eigenvalues --    0.03649   0.03757   0.05224   0.06493   0.07704
 Alpha virt. eigenvalues --    0.08069   0.08615   0.09032   0.09411   0.09568
 Alpha virt. eigenvalues --    0.09864   0.09977   0.10096   0.10447   0.10902
 Alpha virt. eigenvalues --    0.11109   0.11218   0.11531   0.12257   0.12638
 Alpha virt. eigenvalues --    0.13334   0.13452   0.13881   0.14228   0.14908
 Alpha virt. eigenvalues --    0.15365   0.15714   0.15900   0.16050   0.16383
 Alpha virt. eigenvalues --    0.16437   0.17000   0.17398   0.17833   0.18439
 Alpha virt. eigenvalues --    0.18770   0.19275   0.19655   0.19779   0.20263
 Alpha virt. eigenvalues --    0.20551   0.20706   0.21440   0.21558   0.22478
 Alpha virt. eigenvalues --    0.22626   0.23099   0.23478   0.24081   0.24644
 Alpha virt. eigenvalues --    0.24706   0.25264   0.25498   0.25552   0.26097
 Alpha virt. eigenvalues --    0.26461   0.26585   0.26777   0.27008   0.27136
 Alpha virt. eigenvalues --    0.27819   0.27959   0.28124   0.28626   0.29245
 Alpha virt. eigenvalues --    0.29678   0.30000   0.30713   0.31032   0.31773
 Alpha virt. eigenvalues --    0.32527   0.33219   0.33343   0.34569   0.34842
 Alpha virt. eigenvalues --    0.35497   0.36778   0.37484   0.38407   0.38881
 Alpha virt. eigenvalues --    0.39495   0.40082   0.40305   0.40749   0.41122
 Alpha virt. eigenvalues --    0.41930   0.42297   0.42981   0.43516   0.43848
 Alpha virt. eigenvalues --    0.44069   0.44719   0.45405   0.45765   0.46243
 Alpha virt. eigenvalues --    0.46905   0.47041   0.47511   0.47706   0.48234
 Alpha virt. eigenvalues --    0.48621   0.49284   0.49582   0.49940   0.50375
 Alpha virt. eigenvalues --    0.50627   0.50723   0.51053   0.51351   0.51527
 Alpha virt. eigenvalues --    0.51918   0.52554   0.52762   0.53017   0.53679
 Alpha virt. eigenvalues --    0.54337   0.54952   0.55762   0.56536   0.56602
 Alpha virt. eigenvalues --    0.57016   0.57616   0.58405   0.58452   0.58759
 Alpha virt. eigenvalues --    0.59110   0.59197   0.59774   0.60701   0.61180
 Alpha virt. eigenvalues --    0.61607   0.62489   0.62580   0.63083   0.63540
 Alpha virt. eigenvalues --    0.63788   0.64533   0.65113   0.65157   0.65279
 Alpha virt. eigenvalues --    0.66094   0.66217   0.66687   0.66778   0.67157
 Alpha virt. eigenvalues --    0.67557   0.67780   0.67911   0.68296   0.68615
 Alpha virt. eigenvalues --    0.68957   0.69101   0.69401   0.69697   0.69863
 Alpha virt. eigenvalues --    0.70118   0.70769   0.71190   0.71291   0.71559
 Alpha virt. eigenvalues --    0.71948   0.72010   0.72533   0.72735   0.73053
 Alpha virt. eigenvalues --    0.73441   0.73838   0.74079   0.74377   0.75100
 Alpha virt. eigenvalues --    0.75249   0.75663   0.75820   0.76199   0.76326
 Alpha virt. eigenvalues --    0.76739   0.77572   0.77790   0.78026   0.78714
 Alpha virt. eigenvalues --    0.79602   0.79876   0.80071   0.80467   0.80726
 Alpha virt. eigenvalues --    0.82080   0.82930   0.83124   0.83840   0.84817
 Alpha virt. eigenvalues --    0.85275   0.85849   0.86501   0.87310   0.87947
 Alpha virt. eigenvalues --    0.88188   0.88302   0.89084   0.89647   0.90292
 Alpha virt. eigenvalues --    0.90696   0.90833   0.90900   0.92250   0.92633
 Alpha virt. eigenvalues --    0.93269   0.93529   0.94325   0.94785   0.95839
 Alpha virt. eigenvalues --    0.95995   0.96534   0.97286   0.97506   0.97835
 Alpha virt. eigenvalues --    0.98992   0.99632   0.99949   1.00291   1.00782
 Alpha virt. eigenvalues --    1.01731   1.02221   1.03144   1.03448   1.03820
 Alpha virt. eigenvalues --    1.04093   1.05194   1.05698   1.06246   1.06947
 Alpha virt. eigenvalues --    1.07069   1.07241   1.07666   1.08385   1.08964
 Alpha virt. eigenvalues --    1.09430   1.09719   1.10356   1.10706   1.10781
 Alpha virt. eigenvalues --    1.11062   1.11740   1.12068   1.12853   1.12902
 Alpha virt. eigenvalues --    1.13698   1.14337   1.14763   1.15201   1.15766
 Alpha virt. eigenvalues --    1.16193   1.16399   1.16703   1.16976   1.17804
 Alpha virt. eigenvalues --    1.18074   1.18318   1.18592   1.19280   1.19586
 Alpha virt. eigenvalues --    1.19779   1.20886   1.21147   1.21471   1.21716
 Alpha virt. eigenvalues --    1.21924   1.22298   1.22622   1.23374   1.23850
 Alpha virt. eigenvalues --    1.24100   1.24571   1.24660   1.25265   1.25891
 Alpha virt. eigenvalues --    1.26267   1.26552   1.26956   1.27607   1.28239
 Alpha virt. eigenvalues --    1.28877   1.29203   1.29575   1.30982   1.31403
 Alpha virt. eigenvalues --    1.31553   1.32169   1.32337   1.32436   1.33333
 Alpha virt. eigenvalues --    1.33910   1.34401   1.34822   1.35157   1.35507
 Alpha virt. eigenvalues --    1.35757   1.36629   1.36951   1.37926   1.38170
 Alpha virt. eigenvalues --    1.38683   1.39317   1.39653   1.40675   1.40889
 Alpha virt. eigenvalues --    1.41392   1.41908   1.42816   1.43071   1.43752
 Alpha virt. eigenvalues --    1.43947   1.44137   1.44724   1.45306   1.46333
 Alpha virt. eigenvalues --    1.46996   1.48172   1.48386   1.49318   1.49814
 Alpha virt. eigenvalues --    1.50200   1.50803   1.50948   1.51576   1.52218
 Alpha virt. eigenvalues --    1.53045   1.53748   1.54612   1.55094   1.55916
 Alpha virt. eigenvalues --    1.56260   1.56539   1.57253   1.57794   1.58145
 Alpha virt. eigenvalues --    1.58479   1.58859   1.59606   1.60080   1.60241
 Alpha virt. eigenvalues --    1.60848   1.61885   1.62971   1.63520   1.64079
 Alpha virt. eigenvalues --    1.64610   1.65477   1.65656   1.66241   1.66866
 Alpha virt. eigenvalues --    1.67608   1.67890   1.68026   1.68650   1.68726
 Alpha virt. eigenvalues --    1.69392   1.70207   1.70302   1.70913   1.71233
 Alpha virt. eigenvalues --    1.71723   1.72208   1.72698   1.72992   1.73553
 Alpha virt. eigenvalues --    1.74424   1.74601   1.74998   1.75517   1.75604
 Alpha virt. eigenvalues --    1.76495   1.76608   1.76839   1.78141   1.78436
 Alpha virt. eigenvalues --    1.79325   1.79773   1.80632   1.81353   1.82207
 Alpha virt. eigenvalues --    1.82941   1.83234   1.83701   1.84819   1.84918
 Alpha virt. eigenvalues --    1.85511   1.85825   1.86623   1.86913   1.87445
 Alpha virt. eigenvalues --    1.87753   1.88721   1.88894   1.88950   1.89726
 Alpha virt. eigenvalues --    1.89937   1.90438   1.90542   1.90899   1.91537
 Alpha virt. eigenvalues --    1.91953   1.92306   1.92787   1.93322   1.93753
 Alpha virt. eigenvalues --    1.94064   1.94403   1.95063   1.95116   1.96137
 Alpha virt. eigenvalues --    1.96282   1.96702   1.96878   1.97898   1.98730
 Alpha virt. eigenvalues --    1.99552   1.99609   1.99867   2.01478   2.01827
 Alpha virt. eigenvalues --    2.02112   2.02518   2.02656   2.03101   2.03612
 Alpha virt. eigenvalues --    2.04209   2.05368   2.05413   2.06499   2.06982
 Alpha virt. eigenvalues --    2.08559   2.08629   2.09476   2.10995   2.11458
 Alpha virt. eigenvalues --    2.11758   2.12932   2.13371   2.13394   2.14108
 Alpha virt. eigenvalues --    2.15286   2.15553   2.16775   2.17509   2.18023
 Alpha virt. eigenvalues --    2.19183   2.19984   2.20984   2.21196   2.21895
 Alpha virt. eigenvalues --    2.22458   2.23088   2.23947   2.24020   2.24311
 Alpha virt. eigenvalues --    2.25426   2.26420   2.27079   2.28197   2.29390
 Alpha virt. eigenvalues --    2.30614   2.30969   2.31173   2.32136   2.33194
 Alpha virt. eigenvalues --    2.34656   2.35650   2.37358   2.39530   2.40271
 Alpha virt. eigenvalues --    2.41955   2.43352   2.44617   2.45515   2.46970
 Alpha virt. eigenvalues --    2.47436   2.48188   2.49005   2.52216   2.54379
 Alpha virt. eigenvalues --    2.55601   2.55795   2.56823   2.57236   2.57642
 Alpha virt. eigenvalues --    2.57899   2.58535   2.59478   2.59941   2.60789
 Alpha virt. eigenvalues --    2.61691   2.62114   2.62708   2.63227   2.63495
 Alpha virt. eigenvalues --    2.63885   2.64613   2.64976   2.65320   2.65511
 Alpha virt. eigenvalues --    2.66154   2.66588   2.67193   2.68193   2.68282
 Alpha virt. eigenvalues --    2.68639   2.69292   2.70027   2.70287   2.70681
 Alpha virt. eigenvalues --    2.71556   2.71815   2.72698   2.72927   2.73696
 Alpha virt. eigenvalues --    2.74932   2.75806   2.77676   2.77982   2.78387
 Alpha virt. eigenvalues --    2.78759   2.79630   2.79912   2.80532   2.80695
 Alpha virt. eigenvalues --    2.81256   2.81510   2.82117   2.82516   2.84625
 Alpha virt. eigenvalues --    2.84804   2.85061   2.85947   2.87004   2.88218
 Alpha virt. eigenvalues --    2.88738   2.90621   2.90917   2.91100   2.91994
 Alpha virt. eigenvalues --    2.93373   2.93671   2.93807   2.94611   2.94961
 Alpha virt. eigenvalues --    2.95667   2.96063   2.96986   2.97880   2.98137
 Alpha virt. eigenvalues --    2.98413   2.98634   2.99501   2.99796   2.99820
 Alpha virt. eigenvalues --    2.99932   3.00612   3.00999   3.02767   3.02829
 Alpha virt. eigenvalues --    3.02875   3.03006   3.03196   3.03363   3.03486
 Alpha virt. eigenvalues --    3.03637   3.04232   3.04404   3.04501   3.04634
 Alpha virt. eigenvalues --    3.04670   3.04864   3.05007   3.05277   3.06095
 Alpha virt. eigenvalues --    3.06283   3.06571   3.07145   3.07557   3.08715
 Alpha virt. eigenvalues --    3.10278   3.11635   3.12066   3.14335   3.15238
 Alpha virt. eigenvalues --    3.15756   3.16214   3.16454   3.16494   3.17619
 Alpha virt. eigenvalues --    3.21401   3.22094   3.22380   3.32589   3.33833
 Alpha virt. eigenvalues --    3.33985   3.35168   3.36045   3.36960   3.37620
 Alpha virt. eigenvalues --    3.37641   3.37805   3.38655   3.38979   3.39959
 Alpha virt. eigenvalues --    3.42511   3.43006   3.50878   3.51940   3.52610
 Alpha virt. eigenvalues --    3.53033   3.53136   3.53301   3.53701   3.55791
 Alpha virt. eigenvalues --    3.57843   3.59973   3.67242   3.67338   3.68133
 Alpha virt. eigenvalues --    3.81048   3.82347   3.83046   3.83221   3.83695
 Alpha virt. eigenvalues --    3.84024
          Condensed to atoms (all electrons):
 Mulliken charges:
               1
     1  C   -0.024826
     2  C   -0.004264
     3  C    0.003131
     4  C    0.015623
     5  C    0.004704
     6  C   -0.000742
     7  C   -0.097142
     8  C   -0.013663
     9  C    0.030522
    10  H    0.009013
    11  H    0.013320
    12  H    0.016773
    13  H    0.013833
    14  H    0.006984
    15  O   -0.291203
    16  O   -0.339830
    17  O   -0.449634
    18  O   -0.438883
    19  O   -0.425127
    20  S    0.881348
    21  S    0.899193
    22  S    0.857933
    23  O   -0.446201
    24  O   -0.396935
    25  O   -0.516314
    26  O   -0.456499
    27  O   -0.428607
    28  O   -0.402530
    29  C    0.441028
    30  C    0.392438
    31  C    0.427497
    32  F   -0.118577
    33  F   -0.100392
    34  F   -0.125625
    35  F   -0.136065
    36  F   -0.134836
    37  F   -0.142896
    38  F   -0.112374
    39  F   -0.119990
    40  F   -0.124611
    41  C    0.037161
    42  H    0.019671
    43  C   -0.076733
    44  C   -0.134204
    45  C   -0.191043
    46  C    0.070298
    47  C    0.077615
    48  C    0.098675
    49  H    0.098049
    50  H    0.099752
    51  H    0.059911
    52  N    0.140561
    53  N    0.152737
    54  N   -0.098609
    55  N    0.006635
    56  C    0.218102
    57  H    0.113396
    58  Sc   0.386373
    59  C    0.170860
    60  H    0.055874
    61  H    0.005110
    62  C    0.114600
    63  H    0.067951
    64  H    0.047741
    65  H    0.037092
    66  C    0.108200
    67  H    0.081759
    68  H    0.027072
    69  H    0.039823
 Sum of Mulliken charges =  -0.00000
 Mulliken charges with hydrogens summed into heavy atoms:
               1
     1  C   -0.024826
     2  C    0.004748
     3  C    0.016451
     4  C    0.032396
     5  C    0.018537
     6  C    0.006243
     7  C   -0.097142
     8  C   -0.013663
     9  C    0.030522
    15  O   -0.291203
    16  O   -0.339830
    17  O   -0.449634
    18  O   -0.438883
    19  O   -0.425127
    20  S    0.881348
    21  S    0.899193
    22  S    0.857933
    23  O   -0.446201
    24  O   -0.396935
    25  O   -0.516314
    26  O   -0.456499
    27  O   -0.428607
    28  O   -0.402530
    29  C    0.441028
    30  C    0.392438
    31  C    0.427497
    32  F   -0.118577
    33  F   -0.100392
    34  F   -0.125625
    35  F   -0.136065
    36  F   -0.134836
    37  F   -0.142896
    38  F   -0.112374
    39  F   -0.119990
    40  F   -0.124611
    41  C    0.056831
    43  C   -0.076733
    44  C   -0.134204
    45  C   -0.191043
    46  C    0.168346
    47  C    0.177367
    48  C    0.158586
    52  N    0.140561
    53  N    0.152737
    54  N   -0.098609
    55  N    0.006635
    56  C    0.331498
    58  Sc   0.386373
    59  C    0.231843
    62  C    0.267385
    66  C    0.256855
 APT charges:
               1
     1  C   -1.510657
     2  C   -0.096784
     3  C   -0.461501
     4  C   -0.716673
     5  C   -0.573139
     6  C   -0.214131
     7  C   -0.197446
     8  C   -0.536785
     9  C   -0.431798
    10  H   -0.289482
    11  H    0.934101
    12  H    1.785437
    13  H    1.320063
    14  H    0.082841
    15  O   -0.415445
    16  O   -0.438736
    17  O   -0.022256
    18  O   -0.441457
    19  O   -0.748161
    20  S   -0.023411
    21  S    0.085081
    22  S    0.042089
    23  O   -0.429962
    24  O    0.744645
    25  O   -0.580736
    26  O   -0.277291
    27  O   -0.677468
    28  O    0.422419
    29  C   -0.668160
    30  C   -0.711580
    31  C   -0.560733
    32  F    0.300240
    33  F   -0.043822
    34  F    0.743427
    35  F    0.089045
    36  F    0.271777
    37  F    0.736067
    38  F   -0.077412
    39  F    0.839561
    40  F   -0.073705
    41  C   -0.229369
    42  H    0.178678
    43  C   -1.416994
    44  C   -3.139415
    45  C   -1.337992
    46  C   -0.436231
    47  C   -0.577093
    48  C   -0.278197
    49  H    0.272621
    50  H    0.732875
    51  H    0.319869
    52  N    4.115742
    53  N    1.908282
    54  N    0.103748
    55  N    0.197303
    56  C   -0.149464
    57  H    0.447074
    58  Sc   0.385652
    59  C   -0.427782
    60  H    0.435183
    61  H    0.343514
    62  C   -0.576668
    63  H    0.464052
    64  H    0.520728
    65  H    0.312392
    66  C   -0.535370
    67  H    0.478944
    68  H    0.451261
    69  H    0.258594
 Sum of APT charges =  -0.00000
 APT charges with hydrogens summed into heavy atoms:
               1
     1  C   -1.510657
     2  C   -0.386267
     3  C    0.472600
     4  C    1.068763
     5  C    0.746925
     6  C   -0.131290
     7  C   -0.197446
     8  C   -0.536785
     9  C   -0.431798
    15  O   -0.415445
    16  O   -0.438736
    17  O   -0.022256
    18  O   -0.441457
    19  O   -0.748161
    20  S   -0.023411
    21  S    0.085081
    22  S    0.042089
    23  O   -0.429962
    24  O    0.744645
    25  O   -0.580736
    26  O   -0.277291
    27  O   -0.677468
    28  O    0.422419
    29  C   -0.668160
    30  C   -0.711580
    31  C   -0.560733
    32  F    0.300240
    33  F   -0.043822
    34  F    0.743427
    35  F    0.089045
    36  F    0.271777
    37  F    0.736067
    38  F   -0.077412
    39  F    0.839561
    40  F   -0.073705
    41  C   -0.050691
    43  C   -1.416994
    44  C   -3.139415
    45  C   -1.337992
    46  C   -0.163611
    47  C    0.155782
    48  C    0.041673
    52  N    4.115742
    53  N    1.908282
    54  N    0.103748
    55  N    0.197303
    56  C    0.297610
    58  Sc   0.385652
    59  C    0.350915
    62  C    0.720505
    66  C    0.653430
 Electronic spatial extent (au):  <R**2>=          33893.5315
 Charge=              0.0000 electrons
 Dipole moment (field-independent basis, Debye):
    X=             22.4010    Y=              7.9044    Z=             -3.7212  Tot=             24.0443
 Quadrupole moment (field-independent basis, Debye-Ang):
   XX=           -323.3809   YY=           -318.9907   ZZ=           -328.5939
   XY=            -14.6852   XZ=              7.7264   YZ=             -2.8167
 Traceless Quadrupole moment (field-independent basis, Debye-Ang):
   XX=              0.2742   YY=              4.6645   ZZ=             -4.9387
   XY=            -14.6852   XZ=              7.7264   YZ=             -2.8167
 Octapole moment (field-independent basis, Debye-Ang**2):
  XXX=           -226.9022  YYY=             60.1987  ZZZ=           -104.6232  XYY=            -57.1802
  XXY=           -185.0367  XXZ=            -24.0819  XZZ=            -35.4513  YZZ=            -39.2950
  YYZ=            -11.7070  XYZ=            -16.8501
 Hexadecapole moment (field-independent basis, Debye-Ang**3):
 XXXX=         -27744.9417 YYYY=          -8376.7925 ZZZZ=          -5887.4332 XXXY=          -1877.7736
 XXXZ=            198.8211 YYYX=           -241.1677 YYYZ=            -11.2229 ZZZX=           -225.7447
 ZZZY=           -134.5498 XXYY=          -6505.3885 XXZZ=          -5796.4875 YYZZ=          -2318.3168
 XXYZ=           -138.3265 YYXZ=            -63.5759 ZZXY=           -131.0725
 N-N= 9.745452215345D+03 E-N=-3.076449443388D+04  KE= 4.751317528438D+03
  Exact polarizability:   0.000   0.000   0.000   0.000   0.000   0.000
 Approx polarizability: 509.685 -41.951 397.585   0.533 -14.622 533.578

 This type of calculation cannot be archived.


 ... UNTIL SCIENCE IS MIXED WITH EMOTION AND APPEALS TO THE HEART AND
 IMAGINATION , IT IS LIKE DEAD INORGANIC MATTER; AND WHEN IT IS SO MIXED
 AND SO TRANSFORMED IT IS LITERATURE.

                                  -- JOHN BURROUGHS
 Job cpu time:       5 days 11 hours 27 minutes 45.1 seconds.
 Elapsed time:       0 days  5 hours 34 minutes 37.7 seconds.
 File lengths (MBytes):  RWF=   6208 Int=      0 D2E=      0 Chk=    124 Scr=      8
 Normal termination of Gaussian 16 at Sun Mar  2 19:49:14 2025.
