 Entering Gaussian System, Link 0=/sysapps/ubuntu-applications/gaussian-new/avx/g16//g16
 Input=i2.in
 Output=i2.log
 Initial command:
 /sysapps/ubuntu-applications/gaussian-new/avx/g16/l1.exe "/data/temp-scratch/selhajj1/7505300/Gau-2312041.inp" -scrdir="/data/temp-scratch/selhajj1/7505300/"
 Entering Link 1 = /sysapps/ubuntu-applications/gaussian-new/avx/g16/l1.exe PID=   2312043.
  
 Copyright (c) 1988,1990,1992,1993,1995,1998,2003,2009,2016,
            Gaussian, Inc.  All Rights Reserved.
  
 This is part of the Gaussian(R) 16 program.  It is based on
 the Gaussian(R) 09 system (copyright 2009, Gaussian, Inc.),
 the Gaussian(R) 03 system (copyright 2003, Gaussian, Inc.),
 the Gaussian(R) 98 system (copyright 1998, Gaussian, Inc.),
 the Gaussian(R) 94 system (copyright 1995, Gaussian, Inc.),
 the Gaussian 92(TM) system (copyright 1992, Gaussian, Inc.),
 the Gaussian 90(TM) system (copyright 1990, Gaussian, Inc.),
 the Gaussian 88(TM) system (copyright 1988, Gaussian, Inc.),
 the Gaussian 86(TM) system (copyright 1986, Carnegie Mellon
 University), and the Gaussian 82(TM) system (copyright 1983,
 Carnegie Mellon University). Gaussian is a federally registered
 trademark of Gaussian, Inc.
  
 This software contains proprietary and confidential information,
 including trade secrets, belonging to Gaussian, Inc.
  
 This software is provided under written license and may be
 used, copied, transmitted, or stored only in accord with that
 written license.
  
 The following legend is applicable only to US Government
 contracts under FAR:
  
                    RESTRICTED RIGHTS LEGEND
  
 Use, reproduction and disclosure by the US Government is
 subject to restrictions as set forth in subparagraphs (a)
 and (c) of the Commercial Computer Software - Restricted
 Rights clause in FAR 52.227-19.
  
 Gaussian, Inc.
 340 Quinnipiac St., Bldg. 40, Wallingford CT 06492
  
  
 ---------------------------------------------------------------
 Warning -- This program may not be used in any manner that
 competes with the business of Gaussian, Inc. or will provide
 assistance to any competitor of Gaussian, Inc.  The licensee
 of this program is prohibited from giving any competitor of
 Gaussian, Inc. access to this program.  By using this program,
 the user acknowledges that Gaussian, Inc. is engaged in the
 business of creating and licensing software in the field of
 computational chemistry and represents and warrants to the
 licensee that it is not a competitor of Gaussian, Inc. and that
 it will not use this program in any manner prohibited above.
 ---------------------------------------------------------------
  

 Cite this work as:
 Gaussian 16, Revision A.03,
 M. J. Frisch, G. W. Trucks, H. B. Schlegel, G. E. Scuseria, 
 M. A. Robb, J. R. Cheeseman, G. Scalmani, V. Barone, 
 G. A. Petersson, H. Nakatsuji, X. Li, M. Caricato, A. V. Marenich, 
 J. Bloino, B. G. Janesko, R. Gomperts, B. Mennucci, H. P. Hratchian, 
 J. V. Ortiz, A. F. Izmaylov, J. L. Sonnenberg, D. Williams-Young, 
 F. Ding, F. Lipparini, F. Egidi, J. Goings, B. Peng, A. Petrone, 
 T. Henderson, D. Ranasinghe, V. G. Zakrzewski, J. Gao, N. Rega, 
 G. Zheng, W. Liang, M. Hada, M. Ehara, K. Toyota, R. Fukuda, 
 J. Hasegawa, M. Ishida, T. Nakajima, Y. Honda, O. Kitao, H. Nakai, 
 T. Vreven, K. Throssell, J. A. Montgomery, Jr., J. E. Peralta, 
 F. Ogliaro, M. J. Bearpark, J. J. Heyd, E. N. Brothers, K. N. Kudin, 
 V. N. Staroverov, T. A. Keith, R. Kobayashi, J. Normand, 
 K. Raghavachari, A. P. Rendell, J. C. Burant, S. S. Iyengar, 
 J. Tomasi, M. Cossi, J. M. Millam, M. Klene, C. Adamo, R. Cammi, 
 J. W. Ochterski, R. L. Martin, K. Morokuma, O. Farkas, 
 J. B. Foresman, and D. J. Fox, Gaussian, Inc., Wallingford CT, 2016.
 
 ******************************************
 Gaussian 16:  ES64L-G16RevA.03 25-Dec-2016
                31-Jan-2025 
 ******************************************
 %chk=i2.chk
 %mem=616Gb
 %nprocshared=24
 Will use up to   24 processors via shared memory.
 -------------------------------------------------------------------
 #P MN15/gen scf=(maxcyc=500) freq scrf=(smd,solvent=DiChloroEthane)
 -------------------------------------------------------------------
 1/10=4,30=1,38=1/1,3;
 2/12=2,17=6,18=5,40=1/2;
 3/5=7,11=2,25=1,30=1,70=32201,71=2,72=10,74=-73,140=1/1,2,3;
 4//1;
 5/5=2,7=500,38=5,53=10,98=1/2;
 8/6=4,10=90,11=11/1;
 11/6=1,8=1,9=11,15=111,16=1/1,2,10;
 10/6=1/2;
 6/7=2,8=2,9=2,10=2,28=1/1;
 7/8=1,10=1,25=1/1,2,3,16;
 1/10=4,30=1/3;
 99//99;
 Leave Link    1 at Fri Jan 31 15:45:07 2025, MaxMem= 82678120448 cpu:              11.4 elap:               0.6
 (Enter /sysapps/ubuntu-applications/gaussian-new/avx/g16/l101.exe)
 ----
 freq
 ----
 Symbolic Z-matrix:
 Charge =  0 Multiplicity = 1
 C                    -5.66199   0.44742  -0.1257 
 C                    -6.42062   0.32328  -1.29837 
 C                    -7.71893   0.83011  -1.36313 
 C                    -8.2751    1.46873  -0.25199 
 C                    -7.52647   1.59958   0.91966 
 C                    -6.2262    1.09406   0.98391 
 C                    -1.78025   0.55709   0.39152 
 C                    -1.15946   0.88914  -0.8373 
 C                    -1.00284  -0.00655   1.4189 
 H                    -5.98222  -0.17656  -2.16703 
 H                    -8.29598   0.72878  -2.28487 
 H                    -9.29078   1.86779  -0.30052 
 H                    -7.95361   2.10186   1.7904 
 H                    -5.65305   1.21171   1.90662 
 O                     0.23793  -0.26153   1.38775 
 O                     0.08003   0.90317  -1.08019 
 O                    -1.98999   1.22086  -1.81835 
 O                    -1.67707  -0.35073   2.52081 
 C                    -1.42319   1.52656  -3.08972 
 C                    -0.94574  -0.87204   3.62487 
 H                    -2.26498   1.68832  -3.77159 
 H                    -0.80062   0.69298  -3.44469 
 H                    -0.80664   2.43304  -3.03384 
 H                    -1.68763  -1.11048   4.39631 
 H                    -0.23567  -0.1251    4.0068 
 H                    -0.38707  -1.77667   3.34142 
 O                     3.03993  -1.24991   0.8805 
 O                     2.73554  -0.05571  -1.78376 
 O                     0.87793   2.39513   1.13339 
 S                     1.77644   3.26577   0.33392 
 S                     3.75107  -0.44818   1.92277 
 S                     2.06793  -1.35839  -2.09103 
 O                     2.59032   2.33504  -0.51318 
 O                     2.47933   4.3318    1.00316 
 O                     3.06713   0.87747   1.90342 
 O                     4.01079  -1.06946   3.1952 
 O                     1.1296   -1.6046   -0.96587 
 O                     1.5653   -1.54799  -3.43199 
 C                     3.41974  -2.63024  -1.87826 
 C                     5.38431  -0.10962   1.14834 
 C                     0.65347   4.10928  -0.90132 
 F                     3.00946  -3.56867  -1.04301 
 F                     4.51621  -2.06802  -1.4115 
 F                     3.67853  -3.17809  -3.05211 
 F                     5.1867    0.47661  -0.01921 
 F                     6.03038  -1.24704   0.97215 
 F                     6.08975   0.68524   1.93058 
 F                    -0.59823   3.71726  -0.72439 
 F                     1.03198   3.80949  -2.13064 
 F                     0.7229    5.41545  -0.72878 
 C                    -4.25039  -0.11148  -0.09555 
 H                    -3.93607  -0.29215  -1.13363 
 C                    -4.27144  -1.54375   0.55559 
 C                    -5.30146  -2.38128  -0.0944 
 C                    -4.56886  -1.43633   1.99434 
 C                    -1.13761  -3.58229   1.03349 
 C                    -1.47009  -2.8727   -1.22916 
 C                    -0.69162  -3.56234  -0.27111 
 H                    -0.60612  -4.1021    1.83065 
 H                    -1.17286  -2.82374  -2.27857 
 H                     0.23066  -4.05802  -0.57269 
 N                    -6.08911  -3.03995  -0.6266 
 N                    -4.81228  -1.31067   3.11801 
 N                    -2.96846  -2.26675   0.34645 
 N                    -2.58314  -2.25097  -0.91688 
 Sc                    1.70054   0.42139   0.12604 
 C                    -3.24923   0.84058   0.58051 
 H                    -3.47362   1.83184   0.15749 
 H                    -3.46608   0.90792   1.6567 
 C                    -2.32706  -2.90996   1.32582 
 H                    -2.7624   -2.8892    2.32625 
 
 ITRead=  0  0  0  0  0  0  0  0  0  0  0  0  0  0  0  0  0  0  0  0
 ITRead=  0  0  0  0  0  0  0  0  0  0  0  0  0  0  0  0  0  0  0  0
 ITRead=  0  0  0  0  0  0  0  0  0  0  0  0  0  0  0  0  0  0  0  0
 ITRead=  0  0  0  0  0  0  0  0  0  0  0
 MicOpt= -1 -1 -1 -1 -1 -1 -1 -1 -1 -1 -1 -1 -1 -1 -1 -1 -1 -1 -1 -1
 MicOpt= -1 -1 -1 -1 -1 -1 -1 -1 -1 -1 -1 -1 -1 -1 -1 -1 -1 -1 -1 -1
 MicOpt= -1 -1 -1 -1 -1 -1 -1 -1 -1 -1 -1 -1 -1 -1 -1 -1 -1 -1 -1 -1
 MicOpt= -1 -1 -1 -1 -1 -1 -1 -1 -1 -1 -1
 NAtoms=     71 NQM=       71 NQMF=       0 NMMI=      0 NMMIF=      0
                NMic=       0 NMicF=      0.
                    Isotopes and Nuclear Properties:
 (Nuclear quadrupole moments (NQMom) in fm**2, nuclear magnetic moments (NMagM)
  in nuclear magnetons)

  Atom         1           2           3           4           5           6           7           8           9          10
 IAtWgt=          12          12          12          12          12          12          12          12          12           1
 AtmWgt=  12.0000000  12.0000000  12.0000000  12.0000000  12.0000000  12.0000000  12.0000000  12.0000000  12.0000000   1.0078250
 NucSpn=           0           0           0           0           0           0           0           0           0           1
 AtZEff=  -0.0000000  -0.0000000  -0.0000000  -0.0000000  -0.0000000  -0.0000000  -0.0000000  -0.0000000  -0.0000000  -0.0000000
 NQMom=    0.0000000   0.0000000   0.0000000   0.0000000   0.0000000   0.0000000   0.0000000   0.0000000   0.0000000   0.0000000
 NMagM=    0.0000000   0.0000000   0.0000000   0.0000000   0.0000000   0.0000000   0.0000000   0.0000000   0.0000000   2.7928460
 AtZNuc=   6.0000000   6.0000000   6.0000000   6.0000000   6.0000000   6.0000000   6.0000000   6.0000000   6.0000000   1.0000000

  Atom        11          12          13          14          15          16          17          18          19          20
 IAtWgt=           1           1           1           1          16          16          16          16          12          12
 AtmWgt=   1.0078250   1.0078250   1.0078250   1.0078250  15.9949146  15.9949146  15.9949146  15.9949146  12.0000000  12.0000000
 NucSpn=           1           1           1           1           0           0           0           0           0           0
 AtZEff=  -0.0000000  -0.0000000  -0.0000000  -0.0000000  -0.0000000  -0.0000000  -0.0000000  -0.0000000  -0.0000000  -0.0000000
 NQMom=    0.0000000   0.0000000   0.0000000   0.0000000   0.0000000   0.0000000   0.0000000   0.0000000   0.0000000   0.0000000
 NMagM=    2.7928460   2.7928460   2.7928460   2.7928460   0.0000000   0.0000000   0.0000000   0.0000000   0.0000000   0.0000000
 AtZNuc=   1.0000000   1.0000000   1.0000000   1.0000000   8.0000000   8.0000000   8.0000000   8.0000000   6.0000000   6.0000000

  Atom        21          22          23          24          25          26          27          28          29          30
 IAtWgt=           1           1           1           1           1           1          16          16          16          32
 AtmWgt=   1.0078250   1.0078250   1.0078250   1.0078250   1.0078250   1.0078250  15.9949146  15.9949146  15.9949146  31.9720718
 NucSpn=           1           1           1           1           1           1           0           0           0           0
 AtZEff=  -0.0000000  -0.0000000  -0.0000000  -0.0000000  -0.0000000  -0.0000000  -0.0000000  -0.0000000  -0.0000000  -0.0000000
 NQMom=    0.0000000   0.0000000   0.0000000   0.0000000   0.0000000   0.0000000   0.0000000   0.0000000   0.0000000   0.0000000
 NMagM=    2.7928460   2.7928460   2.7928460   2.7928460   2.7928460   2.7928460   0.0000000   0.0000000   0.0000000   0.0000000
 AtZNuc=   1.0000000   1.0000000   1.0000000   1.0000000   1.0000000   1.0000000   8.0000000   8.0000000   8.0000000  16.0000000

  Atom        31          32          33          34          35          36          37          38          39          40
 IAtWgt=          32          32          16          16          16          16          16          16          12          12
 AtmWgt=  31.9720718  31.9720718  15.9949146  15.9949146  15.9949146  15.9949146  15.9949146  15.9949146  12.0000000  12.0000000
 NucSpn=           0           0           0           0           0           0           0           0           0           0
 AtZEff=  -0.0000000  -0.0000000  -0.0000000  -0.0000000  -0.0000000  -0.0000000  -0.0000000  -0.0000000  -0.0000000  -0.0000000
 NQMom=    0.0000000   0.0000000   0.0000000   0.0000000   0.0000000   0.0000000   0.0000000   0.0000000   0.0000000   0.0000000
 NMagM=    0.0000000   0.0000000   0.0000000   0.0000000   0.0000000   0.0000000   0.0000000   0.0000000   0.0000000   0.0000000
 AtZNuc=  16.0000000  16.0000000   8.0000000   8.0000000   8.0000000   8.0000000   8.0000000   8.0000000   6.0000000   6.0000000

  Atom        41          42          43          44          45          46          47          48          49          50
 IAtWgt=          12          19          19          19          19          19          19          19          19          19
 AtmWgt=  12.0000000  18.9984032  18.9984032  18.9984032  18.9984032  18.9984032  18.9984032  18.9984032  18.9984032  18.9984032
 NucSpn=           0           1           1           1           1           1           1           1           1           1
 AtZEff=  -0.0000000  -0.0000000  -0.0000000  -0.0000000  -0.0000000  -0.0000000  -0.0000000  -0.0000000  -0.0000000  -0.0000000
 NQMom=    0.0000000   0.0000000   0.0000000   0.0000000   0.0000000   0.0000000   0.0000000   0.0000000   0.0000000   0.0000000
 NMagM=    0.0000000   2.6288670   2.6288670   2.6288670   2.6288670   2.6288670   2.6288670   2.6288670   2.6288670   2.6288670
 AtZNuc=   6.0000000   9.0000000   9.0000000   9.0000000   9.0000000   9.0000000   9.0000000   9.0000000   9.0000000   9.0000000

  Atom        51          52          53          54          55          56          57          58          59          60
 IAtWgt=          12           1          12          12          12          12          12          12           1           1
 AtmWgt=  12.0000000   1.0078250  12.0000000  12.0000000  12.0000000  12.0000000  12.0000000  12.0000000   1.0078250   1.0078250
 NucSpn=           0           1           0           0           0           0           0           0           1           1
 AtZEff=  -0.0000000  -0.0000000  -0.0000000  -0.0000000  -0.0000000  -0.0000000  -0.0000000  -0.0000000  -0.0000000  -0.0000000
 NQMom=    0.0000000   0.0000000   0.0000000   0.0000000   0.0000000   0.0000000   0.0000000   0.0000000   0.0000000   0.0000000
 NMagM=    0.0000000   2.7928460   0.0000000   0.0000000   0.0000000   0.0000000   0.0000000   0.0000000   2.7928460   2.7928460
 AtZNuc=   6.0000000   1.0000000   6.0000000   6.0000000   6.0000000   6.0000000   6.0000000   6.0000000   1.0000000   1.0000000

  Atom        61          62          63          64          65          66          67          68          69          70
 IAtWgt=           1          14          14          14          14          45          12           1           1          12
 AtmWgt=   1.0078250  14.0030740  14.0030740  14.0030740  14.0030740  44.9559136  12.0000000   1.0078250   1.0078250  12.0000000
 NucSpn=           1           2           2           2           2           7           0           1           1           0
 AtZEff=  -0.0000000  -0.0000000  -0.0000000  -0.0000000  -0.0000000  -0.0000000  -0.0000000  -0.0000000  -0.0000000  -0.0000000
 NQMom=    0.0000000   2.0440000   2.0440000   2.0440000   2.0440000 -22.0000000   0.0000000   0.0000000   0.0000000   0.0000000
 NMagM=    2.7928460   0.4037610   0.4037610   0.4037610   0.4037610   4.7564830   0.0000000   2.7928460   2.7928460   0.0000000
 AtZNuc=   1.0000000   7.0000000   7.0000000   7.0000000   7.0000000  21.0000000   6.0000000   1.0000000   1.0000000   6.0000000

  Atom        71
 IAtWgt=           1
 AtmWgt=   1.0078250
 NucSpn=           1
 AtZEff=  -0.0000000
 NQMom=    0.0000000
 NMagM=    2.7928460
 AtZNuc=   1.0000000
 Leave Link  101 at Fri Jan 31 15:45:07 2025, MaxMem= 82678120448 cpu:               4.2 elap:               0.2
 (Enter /sysapps/ubuntu-applications/gaussian-new/avx/g16/l103.exe)

 GradGradGradGradGradGradGradGradGradGradGradGradGradGradGradGradGradGrad
 Berny optimization.
 Initialization pass.
 Trust Radius=3.00D-01 FncErr=1.00D-07 GrdErr=1.00D-07 EigMax=2.50D+02 EigMin=1.00D-04
 Number of steps in this run=      2 maximum allowed number of steps=      2.
 GradGradGradGradGradGradGradGradGradGradGradGradGradGradGradGradGradGrad

 Leave Link  103 at Fri Jan 31 15:45:07 2025, MaxMem= 82678120448 cpu:               1.8 elap:               0.1
 (Enter /sysapps/ubuntu-applications/gaussian-new/avx/g16/l202.exe)
 Stoichiometry    C23H18F9N4O13S3Sc
 Framework group  C1[X(C23H18F9N4O13S3Sc)]
 Deg. of freedom   207
 Full point group                 C1      NOp   1
 Largest Abelian subgroup         C1      NOp   1
 Largest concise Abelian subgroup C1      NOp   1
                         Standard orientation:                         
 ---------------------------------------------------------------------
 Center     Atomic      Atomic             Coordinates (Angstroms)
 Number     Number       Type             X           Y           Z
 ---------------------------------------------------------------------
      1          6           0       -5.661987    0.447422   -0.125703
      2          6           0       -6.420622    0.323277   -1.298367
      3          6           0       -7.718933    0.830113   -1.363131
      4          6           0       -8.275105    1.468732   -0.251989
      5          6           0       -7.526468    1.599580    0.919662
      6          6           0       -6.226196    1.094063    0.983913
      7          6           0       -1.780254    0.557089    0.391517
      8          6           0       -1.159458    0.889138   -0.837299
      9          6           0       -1.002843   -0.006549    1.418899
     10          1           0       -5.982223   -0.176564   -2.167028
     11          1           0       -8.295978    0.728775   -2.284875
     12          1           0       -9.290776    1.867790   -0.300521
     13          1           0       -7.953614    2.101858    1.790401
     14          1           0       -5.653052    1.211708    1.906616
     15          8           0        0.237931   -0.261530    1.387751
     16          8           0        0.080033    0.903168   -1.080193
     17          8           0       -1.989989    1.220857   -1.818345
     18          8           0       -1.677074   -0.350728    2.520809
     19          6           0       -1.423185    1.526556   -3.089722
     20          6           0       -0.945743   -0.872043    3.624870
     21          1           0       -2.264982    1.688316   -3.771589
     22          1           0       -0.800623    0.692976   -3.444688
     23          1           0       -0.806636    2.433039   -3.033842
     24          1           0       -1.687632   -1.110481    4.396310
     25          1           0       -0.235671   -0.125103    4.006796
     26          1           0       -0.387073   -1.776672    3.341420
     27          8           0        3.039933   -1.249912    0.880497
     28          8           0        2.735543   -0.055711   -1.783764
     29          8           0        0.877927    2.395131    1.133386
     30         16           0        1.776441    3.265768    0.333916
     31         16           0        3.751065   -0.448177    1.922768
     32         16           0        2.067932   -1.358391   -2.091030
     33          8           0        2.590315    2.335037   -0.513180
     34          8           0        2.479334    4.331804    1.003155
     35          8           0        3.067130    0.877466    1.903424
     36          8           0        4.010787   -1.069455    3.195199
     37          8           0        1.129599   -1.604604   -0.965874
     38          8           0        1.565298   -1.547994   -3.431993
     39          6           0        3.419740   -2.630241   -1.878262
     40          6           0        5.384311   -0.109620    1.148341
     41          6           0        0.653474    4.109279   -0.901323
     42          9           0        3.009457   -3.568673   -1.043006
     43          9           0        4.516214   -2.068017   -1.411502
     44          9           0        3.678532   -3.178088   -3.052110
     45          9           0        5.186700    0.476613   -0.019205
     46          9           0        6.030383   -1.247040    0.972153
     47          9           0        6.089751    0.685238    1.930581
     48          9           0       -0.598227    3.717257   -0.724388
     49          9           0        1.031978    3.809494   -2.130635
     50          9           0        0.722903    5.415446   -0.728779
     51          6           0       -4.250385   -0.111477   -0.095548
     52          1           0       -3.936067   -0.292154   -1.133634
     53          6           0       -4.271442   -1.543748    0.555588
     54          6           0       -5.301464   -2.381280   -0.094398
     55          6           0       -4.568857   -1.436328    1.994336
     56          6           0       -1.137611   -3.582292    1.033490
     57          6           0       -1.470093   -2.872695   -1.229155
     58          6           0       -0.691617   -3.562338   -0.271106
     59          1           0       -0.606117   -4.102100    1.830646
     60          1           0       -1.172861   -2.823744   -2.278569
     61          1           0        0.230658   -4.058015   -0.572685
     62          7           0       -6.089108   -3.039951   -0.626597
     63          7           0       -4.812278   -1.310673    3.118014
     64          7           0       -2.968455   -2.266750    0.346449
     65          7           0       -2.583139   -2.250965   -0.916880
     66         21           0        1.700542    0.421387    0.126040
     67          6           0       -3.249225    0.840583    0.580509
     68          1           0       -3.473619    1.831839    0.157488
     69          1           0       -3.466084    0.907917    1.656697
     70          6           0       -2.327063   -2.909959    1.325816
     71          1           0       -2.762397   -2.889199    2.326245
 ---------------------------------------------------------------------
 Rotational constants (GHZ):           0.0789778           0.0368830           0.0323790
 Leave Link  202 at Fri Jan 31 15:45:07 2025, MaxMem= 82678120448 cpu:               1.7 elap:               0.1
 (Enter /sysapps/ubuntu-applications/gaussian-new/avx/g16/l301.exe)
 General basis read from cards:  (5D, 7F)
 Centers:      10     11     12     13     14     21     22     23     24     25
 Centers:      26     52     59     60     61     68     69     71
 S 3 1.00
     Exponent=  1.3010701000D+01 Coefficients=  1.9682158000D-02
     Exponent=  1.9622572000D+00 Coefficients=  1.3796524000D-01
     Exponent=  4.4453796000D-01 Coefficients=  4.7831935000D-01
 S 1 1.00
     Exponent=  1.2194962000D-01 Coefficients=  1.0000000000D+00
 P 1 1.00
     Exponent=  8.0000000000D-01 Coefficients=  1.0000000000D+00
 ****
 Centers:       1      2      3      4      5      6      7      8      9     19
 Centers:      20     39     40     41     51     53     54     55     56     57
 Centers:      58     67     70
 S 5 1.00
     Exponent=  1.2384016938D+03 Coefficients=  5.4568832082D-03
     Exponent=  1.8629004992D+02 Coefficients=  4.0638409211D-02
     Exponent=  4.2251176346D+01 Coefficients=  1.8025593888D-01
     Exponent=  1.1676557932D+01 Coefficients=  4.6315121755D-01
     Exponent=  3.5930506482D+00 Coefficients=  4.4087173314D-01
 S 1 1.00
     Exponent=  4.0245147363D-01 Coefficients=  1.0000000000D+00
 S 1 1.00
     Exponent=  1.3090182668D-01 Coefficients=  1.0000000000D+00
 P 3 1.00
     Exponent=  9.4680970621D+00 Coefficients=  3.8387871728D-02
     Exponent=  2.0103545142D+00 Coefficients=  2.1117025112D-01
     Exponent=  5.4771004707D-01 Coefficients=  5.1328172114D-01
 P 1 1.00
     Exponent=  1.5268613795D-01 Coefficients=  1.0000000000D+00
 D 1 1.00
     Exponent=  8.0000000000D-01 Coefficients=  1.0000000000D+00
 ****
 Centers:      62     63     64     65
 S 5 1.00
     Exponent=  1.7128415853D+03 Coefficients= -5.3934125305D-03
     Exponent=  2.5764812677D+02 Coefficients= -4.0221581118D-02
     Exponent=  5.8458245853D+01 Coefficients= -1.7931144990D-01
     Exponent=  1.6198367905D+01 Coefficients= -4.6376317823D-01
     Exponent=  5.0052600809D+00 Coefficients= -4.4171422662D-01
 S 1 1.00
     Exponent=  5.8731856571D-01 Coefficients=  1.0000000000D+00
 S 1 1.00
     Exponent=  1.8764592253D-01 Coefficients=  1.0000000000D+00
 P 3 1.00
     Exponent=  1.3571470233D+01 Coefficients= -4.0072398852D-02
     Exponent=  2.9257372874D+00 Coefficients= -2.1807045028D-01
     Exponent=  7.9927750754D-01 Coefficients= -5.1294466049D-01
 P 1 1.00
     Exponent=  2.1954348034D-01 Coefficients=  1.0000000000D+00
 D 1 1.00
     Exponent=  1.0000000000D+00 Coefficients=  1.0000000000D+00
 ****
 Centers:      15     16     17     18     27     28     29     33     34     35
 Centers:      36     37     38
 S 5 1.00
     Exponent=  2.2661767785D+03 Coefficients= -5.3431809926D-03
     Exponent=  3.4087010191D+02 Coefficients= -3.9890039230D-02
     Exponent=  7.7363135167D+01 Coefficients= -1.7853911985D-01
     Exponent=  2.1479644940D+01 Coefficients= -4.6427684959D-01
     Exponent=  6.6589433124D+00 Coefficients= -4.4309745172D-01
 S 1 1.00
     Exponent=  8.0975975668D-01 Coefficients=  1.0000000000D+00
 S 1 1.00
     Exponent=  2.5530772234D-01 Coefficients=  1.0000000000D+00
 P 3 1.00
     Exponent=  1.7721504317D+01 Coefficients=  4.3394573193D-02
     Exponent=  3.8635505440D+00 Coefficients=  2.3094120765D-01
     Exponent=  1.0480920883D+00 Coefficients=  5.1375311064D-01
 P 1 1.00
     Exponent=  2.7641544411D-01 Coefficients=  1.0000000000D+00
 D 1 1.00
     Exponent=  1.2000000000D+00 Coefficients=  1.0000000000D+00
 ****
 Centers:      42     43     44     45     46     47     48     49     50
 S 5 1.00
     Exponent=  2.8948325990D+03 Coefficients= -5.3408255515D-03
     Exponent=  4.3541939120D+02 Coefficients= -3.9904258866D-02
     Exponent=  9.8843328866D+01 Coefficients= -1.7912768038D-01
     Exponent=  2.7485198001D+01 Coefficients= -4.6758090825D-01
     Exponent=  8.5405498171D+00 Coefficients= -4.4653131020D-01
 S 1 1.00
     Exponent=  1.0654578038D+00 Coefficients=  1.0000000000D+00
 S 1 1.00
     Exponent=  3.3247346748D-01 Coefficients=  1.0000000000D+00
 P 3 1.00
     Exponent=  2.2696633924D+01 Coefficients= -4.5212874436D-02
     Exponent=  4.9872339257D+00 Coefficients= -2.3754317067D-01
     Exponent=  1.3491613954D+00 Coefficients= -5.1287353587D-01
 P 1 1.00
     Exponent=  3.4829881977D-01 Coefficients=  1.0000000000D+00
 D 1 1.00
     Exponent=  1.4000000000D+00 Coefficients=  1.0000000000D+00
 ****
 Centers:      30     31     32
 S 5 1.00
     Exponent=  9.1849303010D+03 Coefficients= -2.2294387756D-03
     Exponent=  1.3815105503D+03 Coefficients= -1.6683029937D-02
     Exponent=  3.1387147580D+02 Coefficients= -7.5262436116D-02
     Exponent=  8.8053870623D+01 Coefficients= -1.9376827038D-01
     Exponent=  2.7039914905D+01 Coefficients= -1.7718020803D-01
 S 3 1.00
     Exponent=  4.5648731303D+01 Coefficients= -1.0736062573D-01
     Exponent=  4.9664522326D+00 Coefficients=  6.5066293018D-01
     Exponent=  2.0116242047D+00 Coefficients=  5.9712155354D-01
 S 1 1.00
     Exponent=  3.5661077013D-01 Coefficients=  1.0000000000D+00
 S 1 1.00
     Exponent=  1.3507221477D-01 Coefficients=  1.0000000000D+00
 P 5 1.00
     Exponent=  2.6198233439D+02 Coefficients= -9.2729929822D-03
     Exponent=  6.1306894736D+01 Coefficients= -6.6547669241D-02
     Exponent=  1.9103729887D+01 Coefficients= -2.4828595903D-01
     Exponent=  6.6567720378D+00 Coefficients= -4.8703847402D-01
     Exponent=  2.3959635161D+00 Coefficients= -3.9337850312D-01
 P 1 1.00
     Exponent=  6.1776161679D-01 Coefficients=  1.0000000000D+00
 P 1 1.00
     Exponent=  1.6993376871D-01 Coefficients=  1.0000000000D+00
 D 1 1.00
     Exponent=  5.5000000000D-01 Coefficients=  1.0000000000D+00
 ****
 Centers:      66
 S 8 1.00
     Exponent=  1.9161291874D+05 Coefficients=  2.3076475942D-04
     Exponent=  2.8723850363D+04 Coefficients=  1.7890329946D-03
     Exponent=  6.5370116490D+03 Coefficients=  9.2990401140D-03
     Exponent=  1.8503097171D+03 Coefficients=  3.7739438011D-02
     Exponent=  6.0238855156D+02 Coefficients=  1.2227148359D-01
     Exponent=  2.1617324766D+02 Coefficients=  2.8814821470D-01
     Exponent=  8.3712517880D+01 Coefficients=  4.0517543099D-01
     Exponent=  3.2908707189D+01 Coefficients=  2.0566019623D-01
 S 4 1.00
     Exponent=  2.1134393234D+02 Coefficients= -2.4527991462D-02
     Exponent=  6.5128920139D+01 Coefficients= -1.1570158142D-01
     Exponent=  1.0034311535D+01 Coefficients=  5.5995283317D-01
     Exponent=  4.1596884597D+00 Coefficients=  5.6087765073D-01
 S 2 1.00
     Exponent=  6.0009041613D+00 Coefficients= -2.2840494325D-01
     Exponent=  9.8255784150D-01 Coefficients=  7.1948970378D-01
 S 1 1.00
     Exponent=  4.2483192773D-01 Coefficients=  1.0000000000D+00
 S 1 1.00
     Exponent=  7.7185462096D-02 Coefficients=  1.0000000000D+00
 S 1 1.00
     Exponent=  3.0147219702D-02 Coefficients=  1.0000000000D+00
 P 6 1.00
     Exponent=  9.4734122823D+02 Coefficients=  2.4737208744D-03
     Exponent=  2.2409699732D+02 Coefficients=  1.9742967060D-02
     Exponent=  7.1560334882D+01 Coefficients=  9.0357147549D-02
     Exponent=  2.6444824490D+01 Coefficients=  2.5201602503D-01
     Exponent=  1.0393798285D+01 Coefficients=  3.9675535929D-01
     Exponent=  4.1606304559D+00 Coefficients=  2.3208624517D-01
 P 3 1.00
     Exponent=  1.5565737135D+01 Coefficients= -2.7129423974D-02
     Exponent=  2.1121544865D+00 Coefficients=  5.5109256629D-01
     Exponent=  8.4184709021D-01 Coefficients=  1.0090635806D+00
 P 1 1.00
     Exponent=  3.2297542652D-01 Coefficients=  1.0000000000D+00
 P 1 1.00
     Exponent=  8.9748000000D-02 Coefficients=  1.0000000000D+00
 D 4 1.00
     Exponent=  3.0989390993D+01 Coefficients=  1.1902837431D-02
     Exponent=  8.6905465069D+00 Coefficients=  6.7655856850D-02
     Exponent=  2.9520256337D+00 Coefficients=  2.1332539722D-01
     Exponent=  1.0761910745D+00 Coefficients=  3.8391075578D-01
 D 1 1.00
     Exponent=  3.8338915095D-01 Coefficients=  4.3354716259D-01
 D 1 1.00
     Exponent=  1.2534686113D-01 Coefficients=  2.4509263822D-01
 D 1 1.00
     Exponent=  4.1000000000D-02 Coefficients=  1.0000000000D+00
 F 1 1.00
     Exponent=  3.4500000000D-01 Coefficients=  1.0000000000D+00
 ****
 Ernie: Thresh=  0.10000D-02 Tol=  0.10000D-05 Strict=F.
 There are   934 symmetry adapted cartesian basis functions of A   symmetry.
 There are   875 symmetry adapted basis functions of A   symmetry.
   875 basis functions,  1564 primitive gaussians,   934 cartesian basis functions
   219 alpha electrons      219 beta electrons
       nuclear repulsion energy     10639.9704931967 Hartrees.
 IExCor= 7252 DFT=T Ex+Corr=MN15 ExCW=0 ScaHFX=  0.440000
 ScaDFX=  1.000000  1.000000  1.000000  1.000000 ScalE2=  1.000000  1.000000
 IRadAn=      5 IRanWt=     -1 IRanGd=            0 ICorTp=0 IEmpDi=  4
 NAtoms=   71 NActive=   71 NUniq=   71 SFac= 1.00D+00 NAtFMM=   60 NAOKFM=T Big=T
 Integral buffers will be    131072 words long.
 Raffenetti 2 integral format.
 Two-electron integral symmetry is turned on.
 Force inversion solution in PCM.
 ------------------------------------------------------------------------------
 Polarizable Continuum Model (PCM)
 =================================
 Model                : PCM.
 Atomic radii         : SMD-Coulomb.
 Polarization charges : Total charges.
 Charge compensation  : None.
 Solution method      : Matrix inversion.
 Cavity type          : VdW (van der Waals Surface) (Alpha=1.000).
 Cavity algorithm     : GePol (No added spheres)
                        Default sphere list used, NSphG=   71.
                        Lebedev-Laikov grids with approx.  5.0 points / Ang**2.
                        Smoothing algorithm: York/Karplus (Gamma=1.0000).
                        Polarization charges: spherical gaussians, with
                                              point-specific exponents (IZeta= 3).
                        Self-potential: point-specific (ISelfS= 7).
                        Self-field    : sphere-specific E.n sum rule (ISelfD= 2).
 1st derivatives      : Analytical E(r).r(x)/FMM algorithm (CHGder, D1EAlg=3).
                        Cavity 1st derivative terms included.
 2nd derivatives      : Analytical E(r).r(xy)/FMM algorithm (CHGder, D2EAlg=3).
                        Cavity 2nd derivative terms included.
 Solvent              : DiChloroEthane, Eps=  10.125000 Eps(inf)=   2.087447
 ------------------------------------------------------------------------------
 GePol: Number of generator spheres                  =      71
 GePol: Total number of spheres                      =      71
 GePol: Number of exposed spheres                    =      70 ( 98.59%)
 GePol: Number of points                             =    4945
 GePol: Average weight of points                     =       0.13
 GePol: Minimum weight of points                     =   0.31D-10
 GePol: Maximum weight of points                     =    0.21501
 GePol: Number of points with low weight             =     307
 GePol: Fraction of low-weight points (<1% of avg)   =       6.21%
 GePol: Cavity surface area                          =    629.663 Ang**2
 GePol: Cavity volume                                =    766.172 Ang**3
 ------------------------------------------------------------------------------
 Atomic radii for non-electrostatic terms: SMD-CDS.
 ------------------------------------------------------------------------------
 PCM non-electrostatic energy =         0.0051799801 Hartrees.
 Nuclear repulsion after PCM non-electrostatic terms =    10639.9756731768 Hartrees.
 Leave Link  301 at Fri Jan 31 15:45:08 2025, MaxMem= 82678120448 cpu:               5.4 elap:               0.3
 (Enter /sysapps/ubuntu-applications/gaussian-new/avx/g16/l302.exe)
 NPDir=0 NMtPBC=     1 NCelOv=     1 NCel=       1 NClECP=     1 NCelD=      1
         NCelK=      1 NCelE2=     1 NClLst=     1 CellRange=     0.0.
 One-electron integrals computed using PRISM.
 One-electron integral symmetry used in STVInt
 NBasis=   875 RedAO= T EigKep=  2.33D-04  NBF=   875
 NBsUse=   875 1.00D-06 EigRej= -1.00D+00 NBFU=   875
 Precomputing XC quadrature grid using
 IXCGrd= 4 IRadAn=           5 IRanWt=          -1 IRanGd=           0 AccXCQ= 0.00D+00.
 Generated NRdTot=       0 NPtTot=           0 NUsed=           0 NTot=          32
 NSgBfM=   879   868   868   877   879 MxSgAt=    71 MxSgA2=    71.
 Leave Link  302 at Fri Jan 31 15:45:11 2025, MaxMem= 82678120448 cpu:              80.9 elap:               3.5
 (Enter /sysapps/ubuntu-applications/gaussian-new/avx/g16/l303.exe)
 DipDrv:  MaxL=1.
 Leave Link  303 at Fri Jan 31 15:45:11 2025, MaxMem= 82678120448 cpu:               5.3 elap:               0.3
 (Enter /sysapps/ubuntu-applications/gaussian-new/avx/g16/l401.exe)
 ExpMin= 3.01D-02 ExpMax= 1.92D+05 ExpMxC= 1.85D+03 IAcc=3 IRadAn=         5 AccDes= 0.00D+00
 Harris functional with IExCor= 1009 and IRadAn=       5 diagonalized for initial guess.
 HarFok:  IExCor= 1009 AccDes= 0.00D+00 IRadAn=         5 IDoV= 1 UseB2=F ITyADJ=14
 ICtDFT=  3500011 ScaDFX=  1.000000  1.000000  1.000000  1.000000
 FoFCou: FMM=F IPFlag=           0 FMFlag=      100000 FMFlg1=        2001
         NFxFlg=           0 DoJE=T BraDBF=F KetDBF=T FulRan=T
         wScrn=  0.000000 ICntrl=       500 IOpCl=  0 I1Cent=   200000004 NGrid=           0
         NMat0=    1 NMatS0=      1 NMatT0=    0 NMatD0=    1 NMtDS0=    0 NMtDT0=    0
 Petite list used in FoFCou.
 Harris En= -4932.13286103249    
 JPrj=0 DoOrth=F DoCkMO=F.
 Leave Link  401 at Fri Jan 31 15:45:19 2025, MaxMem= 82678120448 cpu:             168.8 elap:               7.1
 (Enter /sysapps/ubuntu-applications/gaussian-new/avx/g16/l502.exe)
 Integral symmetry usage will be decided dynamically.
 Closed shell SCF:
 Using DIIS extrapolation, IDIIS=  1040.
 NGot= 82678120448 LenX= 82676343087 LenY= 82675469797
 Requested convergence on RMS density matrix=1.00D-08 within 500 cycles.
 Requested convergence on MAX density matrix=1.00D-06.
 Requested convergence on             energy=1.00D-06.
 No special actions if energy rises.
 Fock matrices will be formed incrementally for  20 cycles.

 Cycle   1  Pass 1  IDiag  1:
 FoFJK:  IHMeth= 1 ICntrl=       0 DoSepK=F KAlg= 0 I1Cent=           0 FoldK=F
 IRaf= 820000000 NMat=       1 IRICut=       1 DoRegI=T DoRafI=F ISym2E= 0 IDoP0=0 IntGTp=1.
 FoFCou: FMM=T IPFlag=           0 FMFlag=      100000 FMFlg1=        2001
         NFxFlg=           0 DoJE=F BraDBF=F KetDBF=F FulRan=T
         wScrn=  0.000000 ICntrl=         0 IOpCl=  0 I1Cent=           0 NGrid=           0
         NMat0=    1 NMatS0=      1 NMatT0=    0 NMatD0=    1 NMtDS0=    0 NMtDT0=    0
 Symmetry not used in FoFCou.
 FMM levels:  10  Number of levels for PrismC:   9
 Inv3:  Mode=1 IEnd=    73359075.
 Iteration    1 A*A^-1 deviation from unit magnitude is 4.00D-15 for   4919.
 Iteration    1 A*A^-1 deviation from orthogonality  is 2.82D-15 for   1975    252.
 Iteration    1 A^-1*A deviation from unit magnitude is 4.22D-15 for   4919.
 Iteration    1 A^-1*A deviation from orthogonality  is 3.31D-10 for   1871   1854.
 Iteration    2 A*A^-1 deviation from unit magnitude is 1.44D-15 for    270.
 Iteration    2 A*A^-1 deviation from orthogonality  is 2.43D-15 for   2982    115.
 Iteration    2 A^-1*A deviation from unit magnitude is 1.11D-15 for   1095.
 Iteration    2 A^-1*A deviation from orthogonality  is 6.15D-16 for   2845   2124.
 E= -4930.42076371813    
 DIIS: error= 3.04D-02 at cycle   1 NSaved=   1.
 NSaved= 1 IEnMin= 1 EnMin= -4930.42076371813     IErMin= 1 ErrMin= 3.04D-02
 ErrMax= 3.04D-02  0.00D+00 EMaxC= 1.00D-01 BMatC= 1.99D+00 BMatP= 1.99D+00
 IDIUse=3 WtCom= 6.96D-01 WtEn= 3.04D-01
 Coeff-Com:  0.100D+01
 Coeff-En:   0.100D+01
 Coeff:      0.100D+01
 Gap=     0.100 Goal=   None    Shift=    0.000
 GapD=    0.100 DampG=0.500 DampE=0.250 DampFc=0.1250 IDamp=-1.
 Damping current iteration by 1.25D-01
 RMSDP=3.72D-03 MaxDP=3.53D-01              OVMax= 2.62D-01

 Cycle   2  Pass 1  IDiag  1:
 RMSU=  4.65D-04    CP:  9.99D-01
 E= -4930.78207092302     Delta-E=       -0.361307204888 Rises=F Damp=T
 DIIS: error= 2.19D-02 at cycle   2 NSaved=   2.
 NSaved= 2 IEnMin= 2 EnMin= -4930.78207092302     IErMin= 2 ErrMin= 2.19D-02
 ErrMax= 2.19D-02  0.00D+00 EMaxC= 1.00D-01 BMatC= 9.77D-01 BMatP= 1.99D+00
 IDIUse=3 WtCom= 7.81D-01 WtEn= 2.19D-01
 Coeff-Com: -0.214D+01 0.314D+01
 Coeff-En:   0.000D+00 0.100D+01
 Coeff:     -0.167D+01 0.267D+01
 Gap=     0.157 Goal=   None    Shift=    0.000
 RMSDP=1.44D-03 MaxDP=8.53D-02 DE=-3.61D-01 OVMax= 1.79D-01

 Cycle   3  Pass 1  IDiag  1:
 RMSU=  8.31D-04    CP:  9.93D-01  3.00D+00
 E= -4931.89198016195     Delta-E=       -1.109909238929 Rises=F Damp=F
 DIIS: error= 4.60D-03 at cycle   3 NSaved=   3.
 NSaved= 3 IEnMin= 3 EnMin= -4931.89198016195     IErMin= 3 ErrMin= 4.60D-03
 ErrMax= 4.60D-03  0.00D+00 EMaxC= 1.00D-01 BMatC= 5.86D-02 BMatP= 9.77D-01
 IDIUse=3 WtCom= 9.54D-01 WtEn= 4.60D-02
 Coeff-Com: -0.525D+00 0.871D+00 0.654D+00
 Coeff-En:   0.000D+00 0.000D+00 0.100D+01
 Coeff:     -0.501D+00 0.831D+00 0.670D+00
 Gap=     0.160 Goal=   None    Shift=    0.000
 RMSDP=3.99D-04 MaxDP=3.38D-02 DE=-1.11D+00 OVMax= 4.61D-02

 Cycle   4  Pass 1  IDiag  1:
 RMSU=  3.43D-04    CP:  9.95D-01  3.00D+00  7.56D-01
 E= -4931.92527152207     Delta-E=       -0.033291360118 Rises=F Damp=F
 DIIS: error= 5.09D-03 at cycle   4 NSaved=   4.
 NSaved= 4 IEnMin= 4 EnMin= -4931.92527152207     IErMin= 3 ErrMin= 4.60D-03
 ErrMax= 5.09D-03  0.00D+00 EMaxC= 1.00D-01 BMatC= 2.22D-02 BMatP= 5.86D-02
 IDIUse=3 WtCom= 9.49D-01 WtEn= 5.09D-02
 Coeff-Com: -0.342D-01 0.982D-01 0.422D+00 0.514D+00
 Coeff-En:   0.000D+00 0.000D+00 0.253D+00 0.747D+00
 Coeff:     -0.325D-01 0.932D-01 0.414D+00 0.526D+00
 Gap=     0.161 Goal=   None    Shift=    0.000
 RMSDP=1.87D-04 MaxDP=2.16D-02 DE=-3.33D-02 OVMax= 2.91D-02

 Cycle   5  Pass 1  IDiag  1:
 RMSU=  1.35D-04    CP:  9.95D-01  3.00D+00  8.12D-01  6.48D-01
 E= -4931.94189222254     Delta-E=       -0.016620700473 Rises=F Damp=F
 DIIS: error= 1.82D-03 at cycle   5 NSaved=   5.
 NSaved= 5 IEnMin= 5 EnMin= -4931.94189222254     IErMin= 5 ErrMin= 1.82D-03
 ErrMax= 1.82D-03  0.00D+00 EMaxC= 1.00D-01 BMatC= 2.04D-03 BMatP= 2.22D-02
 IDIUse=3 WtCom= 9.82D-01 WtEn= 1.82D-02
 Coeff-Com:  0.207D-01-0.216D-01 0.143D+00 0.288D+00 0.570D+00
 Coeff-En:   0.000D+00 0.000D+00 0.000D+00 0.354D-01 0.965D+00
 Coeff:      0.203D-01-0.212D-01 0.140D+00 0.284D+00 0.577D+00
 Gap=     0.158 Goal=   None    Shift=    0.000
 RMSDP=5.47D-05 MaxDP=6.32D-03 DE=-1.66D-02 OVMax= 9.08D-03

 Cycle   6  Pass 1  IDiag  1:
 RMSU=  3.72D-05    CP:  9.94D-01  3.00D+00  8.26D-01  6.75D-01  7.23D-01
 E= -4931.94357576839     Delta-E=       -0.001683545846 Rises=F Damp=F
 DIIS: error= 4.41D-04 at cycle   6 NSaved=   6.
 NSaved= 6 IEnMin= 6 EnMin= -4931.94357576839     IErMin= 6 ErrMin= 4.41D-04
 ErrMax= 4.41D-04  0.00D+00 EMaxC= 1.00D-01 BMatC= 1.69D-04 BMatP= 2.04D-03
 IDIUse=3 WtCom= 9.96D-01 WtEn= 4.41D-03
 Coeff-Com:  0.154D-01-0.222D-01 0.344D-01 0.932D-01 0.292D+00 0.587D+00
 Coeff-En:   0.000D+00 0.000D+00 0.000D+00 0.000D+00 0.000D+00 0.100D+01
 Coeff:      0.153D-01-0.221D-01 0.342D-01 0.928D-01 0.291D+00 0.589D+00
 Gap=     0.159 Goal=   None    Shift=    0.000
 RMSDP=1.79D-05 MaxDP=1.63D-03 DE=-1.68D-03 OVMax= 2.71D-03

 Cycle   7  Pass 1  IDiag  1:
 RMSU=  1.33D-05    CP:  9.94D-01  3.00D+00  8.28D-01  6.82D-01  7.61D-01
                    CP:  7.20D-01
 E= -4931.94370274461     Delta-E=       -0.000126976229 Rises=F Damp=F
 DIIS: error= 1.16D-04 at cycle   7 NSaved=   7.
 NSaved= 7 IEnMin= 7 EnMin= -4931.94370274461     IErMin= 7 ErrMin= 1.16D-04
 ErrMax= 1.16D-04  0.00D+00 EMaxC= 1.00D-01 BMatC= 2.69D-05 BMatP= 1.69D-04
 IDIUse=3 WtCom= 9.99D-01 WtEn= 1.16D-03
 Coeff-Com:  0.604D-02-0.969D-02 0.241D-02 0.174D-01 0.963D-01 0.341D+00
 Coeff-Com:  0.546D+00
 Coeff-En:   0.000D+00 0.000D+00 0.000D+00 0.000D+00 0.000D+00 0.693D-01
 Coeff-En:   0.931D+00
 Coeff:      0.603D-02-0.968D-02 0.241D-02 0.174D-01 0.962D-01 0.341D+00
 Coeff:      0.547D+00
 Gap=     0.159 Goal=   None    Shift=    0.000
 RMSDP=6.32D-06 MaxDP=7.84D-04 DE=-1.27D-04 OVMax= 5.96D-04

 Cycle   8  Pass 1  IDiag  1:
 RMSU=  4.36D-06    CP:  9.94D-01  3.00D+00  8.28D-01  6.84D-01  7.70D-01
                    CP:  7.78D-01  7.18D-01
 E= -4931.94372342222     Delta-E=       -0.000020677608 Rises=F Damp=F
 DIIS: error= 2.62D-05 at cycle   8 NSaved=   8.
 NSaved= 8 IEnMin= 8 EnMin= -4931.94372342222     IErMin= 8 ErrMin= 2.62D-05
 ErrMax= 2.62D-05  0.00D+00 EMaxC= 1.00D-01 BMatC= 1.53D-06 BMatP= 2.69D-05
 IDIUse=1 WtCom= 1.00D+00 WtEn= 0.00D+00
 Coeff-Com:  0.640D-03-0.129D-02-0.316D-02-0.461D-02 0.530D-02 0.771D-01
 Coeff-Com:  0.234D+00 0.692D+00
 Coeff:      0.640D-03-0.129D-02-0.316D-02-0.461D-02 0.530D-02 0.771D-01
 Coeff:      0.234D+00 0.692D+00
 Gap=     0.159 Goal=   None    Shift=    0.000
 RMSDP=1.89D-06 MaxDP=1.93D-04 DE=-2.07D-05 OVMax= 2.90D-04

 Cycle   9  Pass 1  IDiag  1:
 RMSU=  1.59D-06    CP:  9.94D-01  3.00D+00  8.28D-01  6.84D-01  7.72D-01
                    CP:  7.94D-01  7.54D-01  8.66D-01
 E= -4931.94372473274     Delta-E=       -0.000001310513 Rises=F Damp=F
 DIIS: error= 7.94D-06 at cycle   9 NSaved=   9.
 NSaved= 9 IEnMin= 9 EnMin= -4931.94372473274     IErMin= 9 ErrMin= 7.94D-06
 ErrMax= 7.94D-06  0.00D+00 EMaxC= 1.00D-01 BMatC= 2.15D-07 BMatP= 1.53D-06
 IDIUse=1 WtCom= 1.00D+00 WtEn= 0.00D+00
 Coeff-Com: -0.317D-03 0.394D-03-0.170D-02-0.411D-02-0.712D-02-0.346D-03
 Coeff-Com:  0.483D-01 0.324D+00 0.640D+00
 Coeff:     -0.317D-03 0.394D-03-0.170D-02-0.411D-02-0.712D-02-0.346D-03
 Coeff:      0.483D-01 0.324D+00 0.640D+00
 Gap=     0.159 Goal=   None    Shift=    0.000
 RMSDP=7.31D-07 MaxDP=4.54D-05 DE=-1.31D-06 OVMax= 7.52D-05

 Cycle  10  Pass 1  IDiag  1:
 RMSU=  5.14D-07    CP:  9.94D-01  3.00D+00  8.28D-01  6.84D-01  7.73D-01
                    CP:  7.99D-01  7.73D-01  9.32D-01  8.30D-01
 E= -4931.94372493221     Delta-E=       -0.000000199472 Rises=F Damp=F
 DIIS: error= 3.38D-06 at cycle  10 NSaved=  10.
 NSaved=10 IEnMin=10 EnMin= -4931.94372493221     IErMin=10 ErrMin= 3.38D-06
 ErrMax= 3.38D-06  0.00D+00 EMaxC= 1.00D-01 BMatC= 2.24D-08 BMatP= 2.15D-07
 IDIUse=1 WtCom= 1.00D+00 WtEn= 0.00D+00
 Coeff-Com: -0.179D-03 0.268D-03-0.472D-03-0.152D-02-0.353D-02-0.737D-02
 Coeff-Com:  0.224D-03 0.874D-01 0.284D+00 0.641D+00
 Coeff:     -0.179D-03 0.268D-03-0.472D-03-0.152D-02-0.353D-02-0.737D-02
 Coeff:      0.224D-03 0.874D-01 0.284D+00 0.641D+00
 Gap=     0.159 Goal=   None    Shift=    0.000
 RMSDP=2.56D-07 MaxDP=2.10D-05 DE=-1.99D-07 OVMax= 4.35D-05

 Cycle  11  Pass 1  IDiag  1:
 RMSU=  2.12D-07    CP:  9.94D-01  3.00D+00  8.28D-01  6.84D-01  7.74D-01
                    CP:  8.00D-01  7.78D-01  9.51D-01  8.73D-01  8.98D-01
 E= -4931.94372495393     Delta-E=       -0.000000021721 Rises=F Damp=F
 DIIS: error= 1.45D-06 at cycle  11 NSaved=  11.
 NSaved=11 IEnMin=11 EnMin= -4931.94372495393     IErMin=11 ErrMin= 1.45D-06
 ErrMax= 1.45D-06  0.00D+00 EMaxC= 1.00D-01 BMatC= 5.76D-09 BMatP= 2.24D-08
 IDIUse=1 WtCom= 1.00D+00 WtEn= 0.00D+00
 Coeff-Com: -0.199D-04 0.518D-04 0.964D-04-0.177D-04-0.489D-03-0.416D-02
 Coeff-Com: -0.104D-01-0.192D-01 0.134D-01 0.353D+00 0.668D+00
 Coeff:     -0.199D-04 0.518D-04 0.964D-04-0.177D-04-0.489D-03-0.416D-02
 Coeff:     -0.104D-01-0.192D-01 0.134D-01 0.353D+00 0.668D+00
 Gap=     0.159 Goal=   None    Shift=    0.000
 RMSDP=1.26D-07 MaxDP=1.02D-05 DE=-2.17D-08 OVMax= 3.05D-05

 Cycle  12  Pass 1  IDiag  1:
 RMSU=  8.57D-08    CP:  9.94D-01  3.00D+00  8.28D-01  6.84D-01  7.74D-01
                    CP:  8.00D-01  7.79D-01  9.62D-01  9.05D-01  9.98D-01
                    CP:  8.96D-01
 E= -4931.94372496047     Delta-E=       -0.000000006541 Rises=F Damp=F
 DIIS: error= 3.63D-07 at cycle  12 NSaved=  12.
 NSaved=12 IEnMin=12 EnMin= -4931.94372496047     IErMin=12 ErrMin= 3.63D-07
 ErrMax= 3.63D-07  0.00D+00 EMaxC= 1.00D-01 BMatC= 5.39D-10 BMatP= 5.76D-09
 IDIUse=1 WtCom= 1.00D+00 WtEn= 0.00D+00
 Coeff-Com:  0.356D-04-0.390D-04 0.113D-03 0.218D-03 0.283D-03-0.696D-03
 Coeff-Com: -0.477D-02-0.216D-01-0.398D-01 0.504D-01 0.275D+00 0.741D+00
 Coeff:      0.356D-04-0.390D-04 0.113D-03 0.218D-03 0.283D-03-0.696D-03
 Coeff:     -0.477D-02-0.216D-01-0.398D-01 0.504D-01 0.275D+00 0.741D+00
 Gap=     0.159 Goal=   None    Shift=    0.000
 RMSDP=5.02D-08 MaxDP=3.86D-06 DE=-6.54D-09 OVMax= 1.03D-05

 Cycle  13  Pass 1  IDiag  1:
 RMSU=  3.08D-08    CP:  9.94D-01  3.00D+00  8.28D-01  6.84D-01  7.74D-01
                    CP:  8.00D-01  7.79D-01  9.64D-01  9.14D-01  1.05D+00
                    CP:  9.94D-01  9.64D-01
 E= -4931.94372496105     Delta-E=       -0.000000000578 Rises=F Damp=F
 DIIS: error= 2.70D-07 at cycle  13 NSaved=  13.
 NSaved=13 IEnMin=13 EnMin= -4931.94372496105     IErMin=13 ErrMin= 2.70D-07
 ErrMax= 2.70D-07  0.00D+00 EMaxC= 1.00D-01 BMatC= 9.83D-11 BMatP= 5.39D-10
 IDIUse=1 WtCom= 1.00D+00 WtEn= 0.00D+00
 Coeff-Com:  0.252D-04-0.310D-04 0.434D-04 0.105D-03 0.180D-03 0.206D-03
 Coeff-Com: -0.977D-03-0.742D-02-0.194D-01-0.166D-01 0.513D-01 0.362D+00
 Coeff-Com:  0.630D+00
 Coeff:      0.252D-04-0.310D-04 0.434D-04 0.105D-03 0.180D-03 0.206D-03
 Coeff:     -0.977D-03-0.742D-02-0.194D-01-0.166D-01 0.513D-01 0.362D+00
 Coeff:      0.630D+00
 Gap=     0.159 Goal=   None    Shift=    0.000
 RMSDP=1.61D-08 MaxDP=1.23D-06 DE=-5.78D-10 OVMax= 3.77D-06

 Cycle  14  Pass 1  IDiag  1:
 RMSU=  1.12D-08    CP:  9.94D-01  3.00D+00  8.28D-01  6.84D-01  7.74D-01
                    CP:  8.00D-01  7.79D-01  9.65D-01  9.15D-01  1.06D+00
                    CP:  1.02D+00  1.04D+00  8.54D-01
 E= -4931.94372496143     Delta-E=       -0.000000000380 Rises=F Damp=F
 DIIS: error= 6.07D-08 at cycle  14 NSaved=  14.
 NSaved=14 IEnMin=14 EnMin= -4931.94372496143     IErMin=14 ErrMin= 6.07D-08
 ErrMax= 6.07D-08  0.00D+00 EMaxC= 1.00D-01 BMatC= 1.04D-11 BMatP= 9.83D-11
 IDIUse=1 WtCom= 1.00D+00 WtEn= 0.00D+00
 Coeff-Com:  0.815D-05-0.104D-04 0.365D-05 0.162D-04 0.337D-04 0.205D-03
 Coeff-Com:  0.266D-03-0.283D-04-0.246D-02-0.156D-01-0.202D-01 0.500D-01
 Coeff-Com:  0.266D+00 0.722D+00
 Coeff:      0.815D-05-0.104D-04 0.365D-05 0.162D-04 0.337D-04 0.205D-03
 Coeff:      0.266D-03-0.283D-04-0.246D-02-0.156D-01-0.202D-01 0.500D-01
 Coeff:      0.266D+00 0.722D+00
 Gap=     0.159 Goal=   None    Shift=    0.000
 RMSDP=6.10D-09 MaxDP=5.09D-07 DE=-3.80D-10 OVMax= 1.36D-06

 Error on total polarization charges =  0.03259
 SCF Done:  E(RMN15) =  -4931.94372496     A.U. after   14 cycles
            NFock= 14  Conv=0.61D-08     -V/T= 2.0065
 KE= 4.900273654830D+03 PE=-3.290939670579D+04 EE= 1.243720365283D+04
 SMD-CDS (non-electrostatic) energy       (kcal/mol) =       3.25
 (included in total energy above)
 Leave Link  502 at Fri Jan 31 15:55:23 2025, MaxMem= 82678120448 cpu:           13647.0 elap:             604.6
 (Enter /sysapps/ubuntu-applications/gaussian-new/avx/g16/l801.exe)
 DoSCS=F DFT=T ScalE2(SS,OS)=  1.000000  1.000000
 Range of M.O.s used for correlation:     1   875
 NBasis=   875 NAE=   219 NBE=   219 NFC=     0 NFV=     0
 NROrb=    875 NOA=   219 NOB=   219 NVA=   656 NVB=   656

 **** Warning!!: The largest alpha MO coefficient is  0.13661432D+02

 Leave Link  801 at Fri Jan 31 15:55:24 2025, MaxMem= 82678120448 cpu:               3.4 elap:               0.2
 (Enter /sysapps/ubuntu-applications/gaussian-new/avx/g16/l1101.exe)
 Using compressed storage, NAtomX=    71.
 Will process     72 centers per pass.
 Leave Link 1101 at Fri Jan 31 15:55:39 2025, MaxMem= 82678120448 cpu:             358.3 elap:              15.3
 (Enter /sysapps/ubuntu-applications/gaussian-new/avx/g16/l1102.exe)
 Symmetrizing basis deriv contribution to polar:
 IMax=3 JMax=2 DiffMx= 0.00D+00
 Leave Link 1102 at Fri Jan 31 15:55:40 2025, MaxMem= 82678120448 cpu:               5.4 elap:               0.4
 (Enter /sysapps/ubuntu-applications/gaussian-new/avx/g16/l1110.exe)
 Forming Gx(P) for the SCF density, NAtomX=    71.
 Integral derivatives from FoFJK, PRISM(SPDF).
 Do as many integral derivatives as possible in FoFJK.
 G2DrvN: MDV=   82678114206.
 G2DrvN: will do    72 centers at a time, making    1 passes.
 Calling FoFCou, ICntrl=  3107 FMM=T I1Cent=   0 AccDes= 0.00D+00.
 FoFJK:  IHMeth= 1 ICntrl=    3107 DoSepK=F KAlg= 0 I1Cent=           0 FoldK=F
 IRaf=         0 NMat=       1 IRICut=       1 DoRegI=T DoRafI=F ISym2E= 0 IDoP0=0 IntGTp=1.
 FoFCou: FMM=T IPFlag=           0 FMFlag=      100000 FMFlg1=        2001
         NFxFlg=           0 DoJE=F BraDBF=F KetDBF=F FulRan=T
         wScrn=  0.000000 ICntrl=      3107 IOpCl=  0 I1Cent=           0 NGrid=           0
         NMat0=    1 NMatS0=      1 NMatT0=    0 NMatD0=    1 NMtDS0=    0 NMtDT0=    0
 Symmetry not used in FoFCou.
 FMM levels:  10  Number of levels for PrismC:   9
 NEqPCM:  Using equilibrium solvation (IEInf=0, Eps=  10.1250, EpsInf=   2.0874)
 G2PCM: DoFxE=T DoFxN=T DoGrad=T DoDP/DQ/DG/TGxP=FFFF NFrqRd=   0 IEInf=0 SqF1=F DoCFld=F IF1Alg=4.
 GePol: Maximum number of non-zero 1st derivatives   =     252
 End of G2Drv F.D. properties file   721 does not exist.
 End of G2Drv F.D. properties file   722 does not exist.
 End of G2Drv F.D. properties file   788 does not exist.
 Leave Link 1110 at Fri Jan 31 16:30:59 2025, MaxMem= 82678120448 cpu:           49367.0 elap:            2118.3
 (Enter /sysapps/ubuntu-applications/gaussian-new/avx/g16/l1002.exe)
 Minotr:  Closed shell wavefunction.
          IDoAtm=11111111111111111111111111111111111111111111111111
          IDoAtm=111111111111111111111
 NEqPCM:  Using equilibrium solvation (IEInf=0, Eps=  10.1250, EpsInf=   2.0874)
          Direct CPHF calculation.
          Differentiating once with respect to electric field.
                with respect to dipole field.
          Differentiating once with respect to nuclear coordinates.
          Requested convergence is 1.0D-08 RMS, and 1.0D-07 maximum.
          Secondary convergence is 1.0D-12 RMS, and 1.0D-12 maximum.
          NewPWx=T KeepS1=F KeepF1=F KeepIn=T MapXYZ=F SortEE=F KeepMc=T.
        21971 words used for storage of precomputed grid.
 Two-electron integrals replicated using symmetry.
          MDV=   82678120448 using IRadAn=       1.
          Solving linear equations simultaneously, MaxMat=      72.
 FoF2E skips out because all densities are zero.
 CalDSu exits because no D1Ps are significant.
 FoFJK:  IHMeth= 1 ICntrl=       0 DoSepK=F KAlg= 0 I1Cent=           0 FoldK=F
 IRaf= 760000000 NMat=      72 IRICut=       1 DoRegI=T DoRafI=F ISym2E= 2 IDoP0=3 IntGTp=3.
          There are   216 degrees of freedom in the 1st order CPHF.  IDoFFX=6 NUNeed=     3.
    216 vectors produced by pass  0 Test12= 1.44D-13 1.00D-09 XBig12= 2.74D+02 5.28D+00.
 AX will form    72 AO Fock derivatives at one time.
    213 vectors produced by pass  1 Test12= 1.44D-13 1.00D-09 XBig12= 5.71D+01 5.78D-01.
    213 vectors produced by pass  2 Test12= 1.44D-13 1.00D-09 XBig12= 1.50D+00 1.03D-01.
    213 vectors produced by pass  3 Test12= 1.44D-13 1.00D-09 XBig12= 2.18D-02 1.30D-02.
    213 vectors produced by pass  4 Test12= 1.44D-13 1.00D-09 XBig12= 1.81D-04 8.66D-04.
    213 vectors produced by pass  5 Test12= 1.44D-13 1.00D-09 XBig12= 9.09D-07 5.74D-05.
    175 vectors produced by pass  6 Test12= 1.44D-13 1.00D-09 XBig12= 3.27D-09 3.22D-06.
     49 vectors produced by pass  7 Test12= 1.44D-13 1.00D-09 XBig12= 1.11D-11 2.13D-07.
      3 vectors produced by pass  8 Test12= 1.44D-13 1.00D-09 XBig12= 3.75D-14 1.32D-08.
      1 vectors produced by pass  9 Test12= 1.44D-13 1.00D-09 XBig12= 3.08D-16 1.00D-09.
 InvSVY:  IOpt=1 It=  1 EMax= 7.11D-15
 Solved reduced A of dimension  1509 with   216 vectors.
 FullF1:  Do perturbations      1 to       3.
 Isotropic polarizability for W=    0.000000      468.97 Bohr**3.
 End of Minotr F.D. properties file   721 does not exist.
 End of Minotr F.D. properties file   722 does not exist.
 End of Minotr F.D. properties file   788 does not exist.
 Leave Link 1002 at Fri Jan 31 18:03:10 2025, MaxMem= 82678120448 cpu:          127384.6 elap:            5529.9
 (Enter /sysapps/ubuntu-applications/gaussian-new/avx/g16/l601.exe)
 Copying SCF densities to generalized density rwf, IOpCl= 0 IROHF=0.

 **********************************************************************

            Population analysis using the SCF density.

 **********************************************************************

 Orbital symmetries:
       Occupied  (A) (A) (A) (A) (A) (A) (A) (A) (A) (A) (A) (A)
                 (A) (A) (A) (A) (A) (A) (A) (A) (A) (A) (A) (A)
                 (A) (A) (A) (A) (A) (A) (A) (A) (A) (A) (A) (A)
                 (A) (A) (A) (A) (A) (A) (A) (A) (A) (A) (A) (A)
                 (A) (A) (A) (A) (A) (A) (A) (A) (A) (A) (A) (A)
                 (A) (A) (A) (A) (A) (A) (A) (A) (A) (A) (A) (A)
                 (A) (A) (A) (A) (A) (A) (A) (A) (A) (A) (A) (A)
                 (A) (A) (A) (A) (A) (A) (A) (A) (A) (A) (A) (A)
                 (A) (A) (A) (A) (A) (A) (A) (A) (A) (A) (A) (A)
                 (A) (A) (A) (A) (A) (A) (A) (A) (A) (A) (A) (A)
                 (A) (A) (A) (A) (A) (A) (A) (A) (A) (A) (A) (A)
                 (A) (A) (A) (A) (A) (A) (A) (A) (A) (A) (A) (A)
                 (A) (A) (A) (A) (A) (A) (A) (A) (A) (A) (A) (A)
                 (A) (A) (A) (A) (A) (A) (A) (A) (A) (A) (A) (A)
                 (A) (A) (A) (A) (A) (A) (A) (A) (A) (A) (A) (A)
                 (A) (A) (A) (A) (A) (A) (A) (A) (A) (A) (A) (A)
                 (A) (A) (A) (A) (A) (A) (A) (A) (A) (A) (A) (A)
                 (A) (A) (A) (A) (A) (A) (A) (A) (A) (A) (A) (A)
                 (A) (A) (A)
       Virtual   (A) (A) (A) (A) (A) (A) (A) (A) (A) (A) (A) (A)
                 (A) (A) (A) (A) (A) (A) (A) (A) (A) (A) (A) (A)
                 (A) (A) (A) (A) (A) (A) (A) (A) (A) (A) (A) (A)
                 (A) (A) (A) (A) (A) (A) (A) (A) (A) (A) (A) (A)
                 (A) (A) (A) (A) (A) (A) (A) (A) (A) (A) (A) (A)
                 (A) (A) (A) (A) (A) (A) (A) (A) (A) (A) (A) (A)
                 (A) (A) (A) (A) (A) (A) (A) (A) (A) (A) (A) (A)
                 (A) (A) (A) (A) (A) (A) (A) (A) (A) (A) (A) (A)
                 (A) (A) (A) (A) (A) (A) (A) (A) (A) (A) (A) (A)
                 (A) (A) (A) (A) (A) (A) (A) (A) (A) (A) (A) (A)
                 (A) (A) (A) (A) (A) (A) (A) (A) (A) (A) (A) (A)
                 (A) (A) (A) (A) (A) (A) (A) (A) (A) (A) (A) (A)
                 (A) (A) (A) (A) (A) (A) (A) (A) (A) (A) (A) (A)
                 (A) (A) (A) (A) (A) (A) (A) (A) (A) (A) (A) (A)
                 (A) (A) (A) (A) (A) (A) (A) (A) (A) (A) (A) (A)
                 (A) (A) (A) (A) (A) (A) (A) (A) (A) (A) (A) (A)
                 (A) (A) (A) (A) (A) (A) (A) (A) (A) (A) (A) (A)
                 (A) (A) (A) (A) (A) (A) (A) (A) (A) (A) (A) (A)
                 (A) (A) (A) (A) (A) (A) (A) (A) (A) (A) (A) (A)
                 (A) (A) (A) (A) (A) (A) (A) (A) (A) (A) (A) (A)
                 (A) (A) (A) (A) (A) (A) (A) (A) (A) (A) (A) (A)
                 (A) (A) (A) (A) (A) (A) (A) (A) (A) (A) (A) (A)
                 (A) (A) (A) (A) (A) (A) (A) (A) (A) (A) (A) (A)
                 (A) (A) (A) (A) (A) (A) (A) (A) (A) (A) (A) (A)
                 (A) (A) (A) (A) (A) (A) (A) (A) (A) (A) (A) (A)
                 (A) (A) (A) (A) (A) (A) (A) (A) (A) (A) (A) (A)
                 (A) (A) (A) (A) (A) (A) (A) (A) (A) (A) (A) (A)
                 (A) (A) (A) (A) (A) (A) (A) (A) (A) (A) (A) (A)
                 (A) (A) (A) (A) (A) (A) (A) (A) (A) (A) (A) (A)
                 (A) (A) (A) (A) (A) (A) (A) (A) (A) (A) (A) (A)
                 (A) (A) (A) (A) (A) (A) (A) (A) (A) (A) (A) (A)
                 (A) (A) (A) (A) (A) (A) (A) (A) (A) (A) (A) (A)
                 (A) (A) (A) (A) (A) (A) (A) (A) (A) (A) (A) (A)
                 (A) (A) (A) (A) (A) (A) (A) (A) (A) (A) (A) (A)
                 (A) (A) (A) (A) (A) (A) (A) (A) (A) (A) (A) (A)
                 (A) (A) (A) (A) (A) (A) (A) (A) (A) (A) (A) (A)
                 (A) (A) (A) (A) (A) (A) (A) (A) (A) (A) (A) (A)
                 (A) (A) (A) (A) (A) (A) (A) (A) (A) (A) (A) (A)
                 (A) (A) (A) (A) (A) (A) (A) (A) (A) (A) (A) (A)
                 (A) (A) (A) (A) (A) (A) (A) (A) (A) (A) (A) (A)
                 (A) (A) (A) (A) (A) (A) (A) (A) (A) (A) (A) (A)
                 (A) (A) (A) (A) (A) (A) (A) (A) (A) (A) (A) (A)
                 (A) (A) (A) (A) (A) (A) (A) (A) (A) (A) (A) (A)
                 (A) (A) (A) (A) (A) (A) (A) (A) (A) (A) (A) (A)
                 (A) (A) (A) (A) (A) (A) (A) (A) (A) (A) (A) (A)
                 (A) (A) (A) (A) (A) (A) (A) (A) (A) (A) (A) (A)
                 (A) (A) (A) (A) (A) (A) (A) (A) (A) (A) (A) (A)
                 (A) (A) (A) (A) (A) (A) (A) (A) (A) (A) (A) (A)
                 (A) (A) (A) (A) (A) (A) (A) (A) (A) (A) (A) (A)
                 (A) (A) (A) (A) (A) (A) (A) (A) (A) (A) (A) (A)
                 (A) (A) (A) (A) (A) (A) (A) (A) (A) (A) (A) (A)
                 (A) (A) (A) (A) (A) (A) (A) (A) (A) (A) (A) (A)
                 (A) (A) (A) (A) (A) (A) (A) (A) (A) (A) (A) (A)
                 (A) (A) (A) (A) (A) (A) (A) (A) (A) (A) (A) (A)
                 (A) (A) (A) (A) (A) (A) (A) (A)
 The electronic state is 1-A.
 Alpha  occ. eigenvalues -- -160.19470 -88.05808 -88.05192 -88.04968 -24.33872
 Alpha  occ. eigenvalues --  -24.33797 -24.33769 -24.33602 -24.33553 -24.33509
 Alpha  occ. eigenvalues --  -24.33407 -24.33375 -24.33325 -18.87219 -18.86909
 Alpha  occ. eigenvalues --  -18.84263 -18.84182 -18.83622 -18.83389 -18.83386
 Alpha  occ. eigenvalues --  -18.83199 -18.82956 -18.82749 -18.82745 -18.82733
 Alpha  occ. eigenvalues --  -18.82380 -17.18033 -14.48188 -14.48159 -14.48077
 Alpha  occ. eigenvalues --  -14.29111 -14.20904 -14.15413 -14.14702 -10.33194
 Alpha  occ. eigenvalues --  -10.32897 -10.32753 -10.22745 -10.19947 -10.19904
 Alpha  occ. eigenvalues --  -10.18182 -10.15163 -10.14513 -10.13931 -10.13261
 Alpha  occ. eigenvalues --  -10.12660 -10.10839 -10.10532 -10.10311 -10.07567
 Alpha  occ. eigenvalues --  -10.07060 -10.06332 -10.06274 -10.05987 -10.05955
 Alpha  occ. eigenvalues --  -10.05938 -10.05003  -7.95621  -7.94990  -7.94738
 Alpha  occ. eigenvalues --   -6.15133  -6.15093  -6.14974  -6.14504  -6.14460
 Alpha  occ. eigenvalues --   -6.14357  -6.14252  -6.14202  -6.14116  -2.14370
 Alpha  occ. eigenvalues --   -1.39040  -1.38848  -1.38707  -1.37580  -1.37230
 Alpha  occ. eigenvalues --   -1.37220  -1.27571  -1.27561  -1.27209  -1.27171
 Alpha  occ. eigenvalues --   -1.27116  -1.27096  -1.20121  -1.19317  -1.18938
 Alpha  occ. eigenvalues --   -1.17554  -1.15484  -1.14970  -1.07200  -1.06278
 Alpha  occ. eigenvalues --   -1.05975  -1.05446  -1.05011  -1.04538  -1.04352
 Alpha  occ. eigenvalues --   -1.04071  -1.00596  -0.97660  -0.96468  -0.93356
 Alpha  occ. eigenvalues --   -0.91142  -0.88441  -0.85765  -0.81654  -0.79910
 Alpha  occ. eigenvalues --   -0.79097  -0.78913  -0.78586  -0.78498  -0.78306
 Alpha  occ. eigenvalues --   -0.76419  -0.75178  -0.73099  -0.71889  -0.71409
 Alpha  occ. eigenvalues --   -0.71256  -0.68817  -0.67923  -0.67577  -0.67479
 Alpha  occ. eigenvalues --   -0.67241  -0.67200  -0.67097  -0.67079  -0.66554
 Alpha  occ. eigenvalues --   -0.64339  -0.63423  -0.63036  -0.62797  -0.61902
 Alpha  occ. eigenvalues --   -0.61660  -0.61046  -0.60832  -0.59037  -0.58736
 Alpha  occ. eigenvalues --   -0.57843  -0.57070  -0.56554  -0.56171  -0.56157
 Alpha  occ. eigenvalues --   -0.55949  -0.55765  -0.55577  -0.55520  -0.55093
 Alpha  occ. eigenvalues --   -0.54832  -0.54800  -0.54759  -0.54644  -0.54056
 Alpha  occ. eigenvalues --   -0.53939  -0.53641  -0.53497  -0.53262  -0.52953
 Alpha  occ. eigenvalues --   -0.52776  -0.52548  -0.52375  -0.51673  -0.51342
 Alpha  occ. eigenvalues --   -0.51273  -0.51159  -0.51106  -0.50920  -0.50655
 Alpha  occ. eigenvalues --   -0.50321  -0.49708  -0.48928  -0.48875  -0.48607
 Alpha  occ. eigenvalues --   -0.48527  -0.47858  -0.47562  -0.46660  -0.46494
 Alpha  occ. eigenvalues --   -0.46362  -0.46077  -0.45886  -0.45557  -0.44839
 Alpha  occ. eigenvalues --   -0.44691  -0.44247  -0.43955  -0.43877  -0.43396
 Alpha  occ. eigenvalues --   -0.42945  -0.42552  -0.42404  -0.42186  -0.41655
 Alpha  occ. eigenvalues --   -0.41560  -0.41463  -0.41054  -0.40612  -0.40048
 Alpha  occ. eigenvalues --   -0.39876  -0.39673  -0.39535  -0.39414  -0.38860
 Alpha  occ. eigenvalues --   -0.38730  -0.38676  -0.38503  -0.38298  -0.38015
 Alpha  occ. eigenvalues --   -0.37650  -0.37442  -0.37275  -0.37125  -0.36887
 Alpha  occ. eigenvalues --   -0.36398  -0.35939  -0.35421  -0.35370  -0.35093
 Alpha  occ. eigenvalues --   -0.34724  -0.29604  -0.29500  -0.25941
 Alpha virt. eigenvalues --   -0.10042  -0.05817  -0.02666  -0.01431  -0.00199
 Alpha virt. eigenvalues --   -0.00105   0.00695   0.01235   0.01896   0.02128
 Alpha virt. eigenvalues --    0.03757   0.04174   0.05532   0.06297   0.07152
 Alpha virt. eigenvalues --    0.08774   0.09151   0.09370   0.09581   0.09765
 Alpha virt. eigenvalues --    0.09921   0.10134   0.10418   0.10573   0.10675
 Alpha virt. eigenvalues --    0.10912   0.11129   0.11545   0.11864   0.12368
 Alpha virt. eigenvalues --    0.12778   0.13002   0.13798   0.14114   0.14322
 Alpha virt. eigenvalues --    0.14591   0.14999   0.15349   0.16101   0.16221
 Alpha virt. eigenvalues --    0.16791   0.17092   0.17447   0.17592   0.17847
 Alpha virt. eigenvalues --    0.18117   0.18751   0.18933   0.19402   0.19521
 Alpha virt. eigenvalues --    0.19943   0.20646   0.20803   0.20875   0.21124
 Alpha virt. eigenvalues --    0.22059   0.22418   0.22525   0.23668   0.23891
 Alpha virt. eigenvalues --    0.24506   0.24675   0.25042   0.25365   0.25682
 Alpha virt. eigenvalues --    0.26336   0.26553   0.26699   0.26988   0.27174
 Alpha virt. eigenvalues --    0.27668   0.28201   0.28751   0.28997   0.29469
 Alpha virt. eigenvalues --    0.29666   0.30078   0.30509   0.30968   0.32046
 Alpha virt. eigenvalues --    0.32293   0.32694   0.33062   0.33554   0.34992
 Alpha virt. eigenvalues --    0.35270   0.36021   0.36709   0.37302   0.38373
 Alpha virt. eigenvalues --    0.39269   0.39904   0.40333   0.41046   0.41427
 Alpha virt. eigenvalues --    0.42213   0.42266   0.43027   0.43695   0.44132
 Alpha virt. eigenvalues --    0.44641   0.44737   0.45456   0.45796   0.45919
 Alpha virt. eigenvalues --    0.46153   0.47214   0.47502   0.47869   0.48068
 Alpha virt. eigenvalues --    0.48379   0.48595   0.48802   0.48944   0.49387
 Alpha virt. eigenvalues --    0.49538   0.49918   0.50100   0.50368   0.50604
 Alpha virt. eigenvalues --    0.50852   0.51403   0.51524   0.52239   0.52414
 Alpha virt. eigenvalues --    0.52671   0.53210   0.53567   0.54161   0.54999
 Alpha virt. eigenvalues --    0.55412   0.55733   0.56047   0.56454   0.57414
 Alpha virt. eigenvalues --    0.57719   0.57880   0.58119   0.58868   0.59450
 Alpha virt. eigenvalues --    0.59705   0.60083   0.60632   0.61465   0.61821
 Alpha virt. eigenvalues --    0.62095   0.62655   0.63245   0.63508   0.64064
 Alpha virt. eigenvalues --    0.64741   0.65147   0.65453   0.65553   0.65824
 Alpha virt. eigenvalues --    0.66247   0.66589   0.66753   0.66835   0.67381
 Alpha virt. eigenvalues --    0.67924   0.67998   0.68712   0.68927   0.69109
 Alpha virt. eigenvalues --    0.69379   0.69586   0.69894   0.70329   0.70535
 Alpha virt. eigenvalues --    0.70730   0.71169   0.71239   0.71501   0.71654
 Alpha virt. eigenvalues --    0.71915   0.72464   0.72572   0.72759   0.73142
 Alpha virt. eigenvalues --    0.73499   0.73664   0.73935   0.74788   0.75268
 Alpha virt. eigenvalues --    0.75496   0.75649   0.76115   0.76257   0.76983
 Alpha virt. eigenvalues --    0.77110   0.77357   0.77599   0.78272   0.78513
 Alpha virt. eigenvalues --    0.78801   0.79672   0.80248   0.80431   0.81040
 Alpha virt. eigenvalues --    0.82086   0.82522   0.83288   0.83570   0.84794
 Alpha virt. eigenvalues --    0.85445   0.85803   0.86461   0.87092   0.87848
 Alpha virt. eigenvalues --    0.88575   0.88753   0.89210   0.89541   0.89967
 Alpha virt. eigenvalues --    0.90943   0.91373   0.91702   0.92554   0.93236
 Alpha virt. eigenvalues --    0.93500   0.93816   0.94614   0.95035   0.95653
 Alpha virt. eigenvalues --    0.96059   0.97688   0.97829   0.98550   0.98672
 Alpha virt. eigenvalues --    0.98927   1.00158   1.00419   1.00819   1.01159
 Alpha virt. eigenvalues --    1.02212   1.02343   1.03506   1.03718   1.04114
 Alpha virt. eigenvalues --    1.04298   1.04721   1.05944   1.06310   1.06840
 Alpha virt. eigenvalues --    1.07411   1.08449   1.08732   1.09180   1.09452
 Alpha virt. eigenvalues --    1.09645   1.09893   1.10492   1.10888   1.11743
 Alpha virt. eigenvalues --    1.12326   1.12624   1.13104   1.13271   1.13688
 Alpha virt. eigenvalues --    1.14057   1.14514   1.14981   1.15833   1.16108
 Alpha virt. eigenvalues --    1.16337   1.16783   1.17240   1.17736   1.18055
 Alpha virt. eigenvalues --    1.18704   1.19216   1.19635   1.19742   1.20109
 Alpha virt. eigenvalues --    1.20823   1.21057   1.21280   1.22067   1.22294
 Alpha virt. eigenvalues --    1.22686   1.22929   1.23137   1.23441   1.23856
 Alpha virt. eigenvalues --    1.24144   1.25390   1.25740   1.26322   1.26563
 Alpha virt. eigenvalues --    1.27605   1.28234   1.28349   1.28480   1.29196
 Alpha virt. eigenvalues --    1.29515   1.29823   1.30349   1.31005   1.31327
 Alpha virt. eigenvalues --    1.31451   1.31510   1.32465   1.33091   1.33342
 Alpha virt. eigenvalues --    1.33455   1.34349   1.34633   1.34846   1.35212
 Alpha virt. eigenvalues --    1.35786   1.36621   1.36888   1.37320   1.38370
 Alpha virt. eigenvalues --    1.38704   1.39481   1.39759   1.40274   1.40663
 Alpha virt. eigenvalues --    1.41093   1.41563   1.41884   1.42571   1.43122
 Alpha virt. eigenvalues --    1.43711   1.44294   1.44449   1.45362   1.45651
 Alpha virt. eigenvalues --    1.46152   1.46843   1.47818   1.48357   1.48895
 Alpha virt. eigenvalues --    1.49599   1.49943   1.50869   1.51372   1.51980
 Alpha virt. eigenvalues --    1.52330   1.52634   1.53115   1.53678   1.54606
 Alpha virt. eigenvalues --    1.54955   1.55485   1.55669   1.56126   1.57376
 Alpha virt. eigenvalues --    1.57884   1.57911   1.58706   1.59197   1.59751
 Alpha virt. eigenvalues --    1.60597   1.61233   1.62065   1.62493   1.62908
 Alpha virt. eigenvalues --    1.63621   1.63986   1.64221   1.64662   1.65550
 Alpha virt. eigenvalues --    1.65829   1.66419   1.67018   1.67793   1.68448
 Alpha virt. eigenvalues --    1.68787   1.69275   1.70023   1.70136   1.70990
 Alpha virt. eigenvalues --    1.71149   1.72119   1.72446   1.72933   1.73124
 Alpha virt. eigenvalues --    1.73630   1.74266   1.74509   1.74636   1.74898
 Alpha virt. eigenvalues --    1.75040   1.75415   1.75974   1.76573   1.76836
 Alpha virt. eigenvalues --    1.77487   1.78343   1.78771   1.79579   1.79736
 Alpha virt. eigenvalues --    1.79798   1.80690   1.82192   1.82446   1.83002
 Alpha virt. eigenvalues --    1.83380   1.83491   1.83991   1.84687   1.85317
 Alpha virt. eigenvalues --    1.85616   1.85816   1.86273   1.86787   1.87156
 Alpha virt. eigenvalues --    1.87486   1.87706   1.88432   1.88826   1.89518
 Alpha virt. eigenvalues --    1.90309   1.90603   1.91069   1.91210   1.91357
 Alpha virt. eigenvalues --    1.92078   1.92542   1.93099   1.93412   1.93681
 Alpha virt. eigenvalues --    1.93837   1.94128   1.94356   1.95009   1.96103
 Alpha virt. eigenvalues --    1.96557   1.96831   1.97115   1.97994   1.98398
 Alpha virt. eigenvalues --    1.98779   1.99112   1.99392   2.00149   2.00832
 Alpha virt. eigenvalues --    2.01310   2.02199   2.02863   2.03104   2.04191
 Alpha virt. eigenvalues --    2.04794   2.05621   2.06264   2.06319   2.06866
 Alpha virt. eigenvalues --    2.07502   2.08241   2.08848   2.09585   2.10542
 Alpha virt. eigenvalues --    2.11744   2.12806   2.13008   2.13395   2.14098
 Alpha virt. eigenvalues --    2.15176   2.15396   2.17564   2.17871   2.19093
 Alpha virt. eigenvalues --    2.19906   2.20604   2.21338   2.21935   2.22188
 Alpha virt. eigenvalues --    2.22663   2.22694   2.23185   2.23504   2.23918
 Alpha virt. eigenvalues --    2.24334   2.25136   2.25494   2.26855   2.28046
 Alpha virt. eigenvalues --    2.29480   2.30289   2.30807   2.31057   2.31744
 Alpha virt. eigenvalues --    2.32645   2.33066   2.34041   2.35315   2.36565
 Alpha virt. eigenvalues --    2.38373   2.39390   2.40649   2.41589   2.42349
 Alpha virt. eigenvalues --    2.44096   2.45931   2.48883   2.49082   2.51013
 Alpha virt. eigenvalues --    2.54932   2.55646   2.56615   2.56877   2.57390
 Alpha virt. eigenvalues --    2.57791   2.58789   2.59889   2.60326   2.60779
 Alpha virt. eigenvalues --    2.61225   2.61351   2.61837   2.62507   2.62748
 Alpha virt. eigenvalues --    2.63294   2.63454   2.64179   2.64888   2.65080
 Alpha virt. eigenvalues --    2.65482   2.65996   2.66338   2.66723   2.67300
 Alpha virt. eigenvalues --    2.68181   2.68706   2.69231   2.69781   2.70214
 Alpha virt. eigenvalues --    2.70724   2.71804   2.72436   2.73257   2.73707
 Alpha virt. eigenvalues --    2.74332   2.74672   2.76030   2.78120   2.78459
 Alpha virt. eigenvalues --    2.79048   2.79243   2.79543   2.79734   2.79992
 Alpha virt. eigenvalues --    2.80258   2.80437   2.80959   2.81595   2.82692
 Alpha virt. eigenvalues --    2.83089   2.83334   2.83997   2.84131   2.85246
 Alpha virt. eigenvalues --    2.85773   2.86014   2.86563   2.87256   2.87958
 Alpha virt. eigenvalues --    2.89926   2.91039   2.91429   2.92305   2.92941
 Alpha virt. eigenvalues --    2.93615   2.94438   2.95135   2.95601   2.96090
 Alpha virt. eigenvalues --    2.96205   2.96381   2.97523   2.97889   2.98348
 Alpha virt. eigenvalues --    2.98467   2.98827   2.99058   2.99587   3.00062
 Alpha virt. eigenvalues --    3.00376   3.00697   3.01598   3.02611   3.02877
 Alpha virt. eigenvalues --    3.03170   3.03219   3.03326   3.03377   3.03394
 Alpha virt. eigenvalues --    3.03599   3.03723   3.03798   3.03844   3.03972
 Alpha virt. eigenvalues --    3.04109   3.04465   3.04911   3.05306   3.05505
 Alpha virt. eigenvalues --    3.05910   3.06018   3.06601   3.07357   3.07722
 Alpha virt. eigenvalues --    3.09825   3.11607   3.12100   3.13716   3.14700
 Alpha virt. eigenvalues --    3.15713   3.15894   3.16028   3.16344   3.16707
 Alpha virt. eigenvalues --    3.17058   3.20953   3.21258   3.22328   3.22472
 Alpha virt. eigenvalues --    3.24250   3.32091   3.35042   3.35424   3.35957
 Alpha virt. eigenvalues --    3.37755   3.37962   3.38555   3.38677   3.38963
 Alpha virt. eigenvalues --    3.39300   3.39868   3.40484   3.44104   3.45244
 Alpha virt. eigenvalues --    3.51133   3.51902   3.52356   3.52703   3.53224
 Alpha virt. eigenvalues --    3.53441   3.53623   3.54235   3.54559   3.57016
 Alpha virt. eigenvalues --    3.62313   3.67632   3.67832   3.68243   3.70529
 Alpha virt. eigenvalues --    3.81069   3.81508   3.82616   3.83220   3.83709
 Alpha virt. eigenvalues --    3.84173
          Condensed to atoms (all electrons):
 Mulliken charges:
               1
     1  C   -0.023038
     2  C    0.000804
     3  C    0.004322
     4  C    0.012653
     5  C    0.002042
     6  C    0.003046
     7  C   -0.235415
     8  C    0.273383
     9  C    0.270210
    10  H    0.004004
    11  H    0.011848
    12  H    0.014620
    13  H    0.011791
    14  H    0.003045
    15  O   -0.316811
    16  O   -0.306943
    17  O   -0.276010
    18  O   -0.300563
    19  C    0.174921
    20  C    0.157259
    21  H    0.055596
    22  H    0.043306
    23  H    0.035950
    24  H    0.055716
    25  H    0.070099
    26  H    0.043657
    27  O   -0.437543
    28  O   -0.439815
    29  O   -0.421830
    30  S    0.885625
    31  S    0.868020
    32  S    0.866283
    33  O   -0.442809
    34  O   -0.407874
    35  O   -0.427880
    36  O   -0.400664
    37  O   -0.444131
    38  O   -0.417810
    39  C    0.433769
    40  C    0.437836
    41  C    0.424325
    42  F   -0.124776
    43  F   -0.115039
    44  F   -0.128068
    45  F   -0.105824
    46  F   -0.124511
    47  F   -0.124051
    48  F   -0.122035
    49  F   -0.116927
    50  F   -0.123667
    51  C    0.028839
    52  H    0.035159
    53  C   -0.127990
    54  C   -0.105858
    55  C   -0.215162
    56  C    0.030448
    57  C    0.068272
    58  C    0.162469
    59  H    0.092346
    60  H    0.080985
    61  H    0.072768
    62  N    0.141773
    63  N    0.164999
    64  N   -0.100132
    65  N    0.019620
    66  Sc   0.253834
    67  C    0.244464
    68  H    0.028677
    69  H    0.022644
    70  C    0.210046
    71  H    0.111701
 Sum of Mulliken charges =  -0.00000
 Mulliken charges with hydrogens summed into heavy atoms:
               1
     1  C   -0.023038
     2  C    0.004809
     3  C    0.016170
     4  C    0.027273
     5  C    0.013833
     6  C    0.006092
     7  C   -0.235415
     8  C    0.273383
     9  C    0.270210
    15  O   -0.316811
    16  O   -0.306943
    17  O   -0.276010
    18  O   -0.300563
    19  C    0.309773
    20  C    0.326731
    27  O   -0.437543
    28  O   -0.439815
    29  O   -0.421830
    30  S    0.885625
    31  S    0.868020
    32  S    0.866283
    33  O   -0.442809
    34  O   -0.407874
    35  O   -0.427880
    36  O   -0.400664
    37  O   -0.444131
    38  O   -0.417810
    39  C    0.433769
    40  C    0.437836
    41  C    0.424325
    42  F   -0.124776
    43  F   -0.115039
    44  F   -0.128068
    45  F   -0.105824
    46  F   -0.124511
    47  F   -0.124051
    48  F   -0.122035
    49  F   -0.116927
    50  F   -0.123667
    51  C    0.063998
    53  C   -0.127990
    54  C   -0.105858
    55  C   -0.215162
    56  C    0.122794
    57  C    0.149257
    58  C    0.235237
    62  N    0.141773
    63  N    0.164999
    64  N   -0.100132
    65  N    0.019620
    66  Sc   0.253834
    67  C    0.295785
    70  C    0.321747
 APT charges:
               1
     1  C   -0.009469
     2  C   -0.066903
     3  C   -0.049554
     4  C   -0.026473
     5  C   -0.043258
     6  C   -0.087407
     7  C   -1.069561
     8  C    1.979623
     9  C    1.967971
    10  H    0.056132
    11  H    0.046404
    12  H    0.048680
    13  H    0.046568
    14  H    0.077060
    15  O   -1.407011
    16  O   -1.374025
    17  O   -1.226623
    18  O   -1.289497
    19  C    0.614341
    20  C    0.625627
    21  H    0.012395
    22  H   -0.005049
    23  H    0.002682
    24  H    0.017048
    25  H   -0.005673
    26  H   -0.009444
    27  O   -1.210678
    28  O   -1.236215
    29  O   -1.137955
    30  S    2.503833
    31  S    2.550236
    32  S    2.572592
    33  O   -1.213581
    34  O   -0.989724
    35  O   -1.203448
    36  O   -0.986170
    37  O   -1.264896
    38  O   -1.002190
    39  C    1.899924
    40  C    1.860813
    41  C    1.852583
    42  F   -0.654143
    43  F   -0.664630
    44  F   -0.700009
    45  F   -0.639099
    46  F   -0.665285
    47  F   -0.669089
    48  F   -0.659634
    49  F   -0.645976
    50  F   -0.686144
    51  C    0.149019
    52  H    0.066399
    53  C    0.708456
    54  C    0.060606
    55  C    0.077773
    56  C   -0.143937
    57  C    0.182750
    58  C    0.212295
    59  H    0.143561
    60  H    0.122696
    61  H    0.149420
    62  N   -0.305342
    63  N   -0.310219
    64  N   -0.242506
    65  N   -0.297034
    66  Sc   2.919927
    67  C    0.178602
    68  H   -0.004254
    69  H    0.036158
    70  C    0.269039
    71  H    0.190892
 Sum of APT charges =  -0.00000
 APT charges with hydrogens summed into heavy atoms:
               1
     1  C   -0.009469
     2  C   -0.010771
     3  C   -0.003150
     4  C    0.022207
     5  C    0.003310
     6  C   -0.010347
     7  C   -1.069561
     8  C    1.979623
     9  C    1.967971
    15  O   -1.407011
    16  O   -1.374025
    17  O   -1.226623
    18  O   -1.289497
    19  C    0.624368
    20  C    0.627558
    27  O   -1.210678
    28  O   -1.236215
    29  O   -1.137955
    30  S    2.503833
    31  S    2.550236
    32  S    2.572592
    33  O   -1.213581
    34  O   -0.989724
    35  O   -1.203448
    36  O   -0.986170
    37  O   -1.264896
    38  O   -1.002190
    39  C    1.899924
    40  C    1.860813
    41  C    1.852583
    42  F   -0.654143
    43  F   -0.664630
    44  F   -0.700009
    45  F   -0.639099
    46  F   -0.665285
    47  F   -0.669089
    48  F   -0.659634
    49  F   -0.645976
    50  F   -0.686144
    51  C    0.215418
    53  C    0.708456
    54  C    0.060606
    55  C    0.077773
    56  C   -0.000376
    57  C    0.305447
    58  C    0.361714
    62  N   -0.305342
    63  N   -0.310219
    64  N   -0.242506
    65  N   -0.297034
[...]
 0856,0.00004039,-0.00000979,0.00002117,-0.00002209,0.00046354,0.000196
 99,0.00100869,0.00016006,-0.00017508,0.00013572,0.00035396,-0.00006141
 ,-0.00008338,0.00037754,0.00010919,-0.00031636,-0.00349361,0.00187368,
 -0.00135279,-0.00003286,-0.00012523,0.00027204,-0.00036041,-0.00007157
 ,-0.00002009,-0.00000320,0.00000351,-0.00002192,0.00003042,0.00001068,
 -0.00004656,0.00001867,0.00001191,-0.00002407,0.00003387,0.00000280,0.
 00000465,-0.00002437,0.00003895,-0.00002214,-0.00001342,0.00000103,0.0
 0003295,0.00004120,-0.00001188,0.00002543,0.00002956,-0.00002245,-0.00
 002429,0.00003377,0.00007294,0.00002049,-0.00002887,-0.00009841,-0.000
 02656,-0.00004813,0.00000942,-0.00004551,-0.00005212,0.00003808,0.0000
 6441,0.00001764,0.00005133,0.00000924,0.00001390,0.00003371,0.00001378
 ,0.00003838,-0.00000140,0.00002662,0.00000956,-0.00000588,0.00001732,0
 .00004327,-0.00003836,-0.00003882,0.00000903,-0.00000942,-0.00001984,-
 0.00002416,0.00002558,-0.00000149,-0.00002318,-0.00000355,-0.00000037,
 0.00000212,-0.00006317,-0.00001086,0.00000484,-0.00001070,0.00000313,0
 .00001311,-0.00000348,0.00000261,0.00001004,-0.00001188,-0.00000887,0.
 00000621,0.00000048,0.00000122,0.00000827,-0.00000386,-0.00000185,0.00
 001027,0.00000646,0.00000350,0.00000177,0.00002246,0.00000442,-0.00000
 017,0.00001500,0.00000578,-0.00000363,0.00003219,0.00000114,0.00127975
 ,-0.00164209,-0.01295488,-0.00174322,-0.00103866,0.00033418,0.00020340
 ,0.00086404,0.00030278,0.00002142,0.00032874,0.00009474,0.00032713,-0.
 00010092,0.00020109,-0.00001420,-0.00000525,0.00002460,-0.00001888,-0.
 00000157,0.00004369,0.00000936,0.00002985,-0.00001252,-0.00000118,-0.0
 0000095,-0.00000058,-0.00000643,-0.00000676,-0.00000161,0.00000119,0.0
 0000072,0.00000385,0.00001472,-0.00007648,-0.00003027,0.00032735,0.000
 60724,-0.00035421,0.00002992,-0.00000575,-0.00012272,-0.00000288,-0.00
 008808,0.00004169,-0.00025950,-0.00001514,-0.00004894,0.05515605,-0.01
 607678,-0.31400349,0.00203218,-0.00151821,-0.00810900,-0.05734884,0.01
 627475,0.33783696,-0.00029359,0.00056330,-0.00035616,0.00009787,0.0001
 0456,0.00014638,-0.00008570,-0.00002407,0.00007485,-0.00003879,0.00002
 332,-0.00000143,-0.00008001,-0.00001862,-0.00004796,0.00007908,-0.0000
 5537,-0.00020170,-0.00090700,-0.00108269,0.00033009,0.00030251,0.00007
 527,-0.00094374,0.00121972,-0.00176582,-0.00035177,0.00002517,0.000015
 12,-0.00000936,-0.00001509,-0.00000084,-0.00000531,-0.00000152,0.00001
 230,-0.00000320,-0.00001271,0.00000778,0.00000768,0.00001465,0.0000128
 0,0.00000763,-0.00110418,0.00057008,0.00035539,-0.00074564,0.00004005,
 0.00008209,0.00019647,-0.00004510,0.00034760,-0.00099973,-0.00137394,-
 0.00030596,0.00000601,-0.00001608,-0.00001434,0.00034117,0.00017097,-0
 .00010812,-0.00000123,-0.00000267,0.00000455,0.00000015,0.00000637,0.0
 0001196,0.00000235,0.00000137,0.00000633,-0.00003202,0.00017240,0.0001
 2712,0.00001087,-0.00006814,0.00008245,-0.00090517,-0.00046001,-0.0011
 5140,0.00016615,0.00012549,0.00014192,0.00037115,0.00032064,-0.0001092
 5,-0.00004273,0.00007481,-0.00000499,0.00006853,-0.00009706,-0.0000337
 8,-0.00017016,-0.00019702,-0.00024088,-0.00061807,-0.00001739,0.000983
 09,-0.00004611,0.00011602,0.00002365,-0.00000648,0.00002731,0.00000904
 ,0.00003129,0.00008907,0.00005077,0.00004550,0.00002511,0.00007161,0.0
 0005597,0.00080942,-0.00154612,0.00001512,-0.00001068,-0.00034592,-0.0
 0032048,-0.00000895,0.00016761,-0.00010077,-0.00003556,0.00000960,0.00
 005157,-0.00000142,0.00000862,0.00010995,0.00007964,-0.00011792,0.0001
 4827,0.00002159,0.00001840,0.00009001,-0.00007841,-0.00012258,0.000026
 06,0.00001087,0.00000031,0.00002606,0.00000159,-0.00000227,0.00005913,
 0.00004004,0.00001983,-0.00003250,-0.00000017,-0.00000162,-0.00000987,
 0.00000446,-0.00000164,-0.00001071,0.00001645,-0.00000437,-0.00118225,
 -0.00153056,0.00041831,0.00003810,0.00006746,0.00005073,-0.01828965,0.
 01749394,-0.01699238,0.00039749,0.00187428,-0.00048334,-0.00478501,0.0
 0175116,-0.00027467,-0.28111816,0.12716912,0.02250705,-0.03154218,0.01
 501962,0.00063106,-0.00808301,-0.00934079,0.06205662,-0.00689197,0.005
 15721,0.00620280,-0.00112082,0.00035195,-0.00109025,0.00241700,0.00414
 490,0.00269180,-0.00014396,-0.00032076,0.00005331,-0.00035809,0.000238
 72,-0.00089110,-0.18027412,0.07917254,-0.04048611,0.04009558,-0.003827
 16,-0.04012750,0.00002135,-0.00066769,0.00001045,-0.00009140,0.0002883
 2,0.00011184,-0.00001297,0.00003906,0.00004294,0.00001628,0.00006467,0
 .00002225,0.59856469,0.00011152,-0.00040720,0.00005032,-0.00010208,0.0
 0011062,0.00002727,0.00000952,-0.00000325,-0.00004663,0.00000186,0.000
 00409,0.00001801,-0.00001931,0.00000005,-0.00001442,0.00000250,-0.0000
 1163,0.00004356,0.00025681,0.00197614,-0.00185595,-0.00118304,-0.00060
 058,0.00267435,-0.00330873,-0.00496124,0.00295909,-0.00000614,-0.00000
 736,0.00000529,-0.00001100,0.00000312,-0.00000264,-0.00000473,0.000002
 07,-0.00000109,-0.00000375,0.00000125,0.00000159,0.00002832,-0.0000048
 0,-0.00002577,0.00073104,-0.00000462,-0.00031422,0.00150320,0.00003042
 ,-0.00040267,-0.00046423,0.00026412,-0.00120304,0.00052550,0.00009252,
 -0.00181442,-0.00010140,-0.00004095,0.00035120,0.00021512,0.00015407,-
 0.00099203,-0.00000463,0.00001286,-0.00004675,0.00003380,0.00000713,-0
 .00004883,0.00002489,0.00001240,-0.00005700,0.00001640,-0.00002990,0.0
 0014963,0.00016279,0.00002666,0.00027972,-0.00023247,-0.00014445,0.000
 01766,0.00010168,-0.00014322,0.00000420,-0.00007533,-0.00028478,-0.000
 15632,0.00013997,0.00022006,-0.00001326,-0.00022054,-0.00028620,0.0000
 2986,-0.00017888,0.00021650,-0.00002605,0.00012763,0.00019679,0.000037
 08,0.00010746,0.00012317,-0.00001569,0.00007408,0.00010026,0.00002083,
 0.00018978,-0.00009159,0.00006391,0.00003468,-0.00005469,0.00002279,0.
 00046517,-0.00024830,0.00048353,-0.00001086,-0.00005120,0.00005217,0.0
 0011045,0.00019257,-0.00010918,-0.00006817,0.00001368,0.00002464,-0.00
 007871,-0.00018251,0.00008101,-0.00006291,-0.00011541,0.00008920,-0.00
 004453,-0.00004466,-0.00000605,-0.00000687,-0.00003248,0.00001789,0.00
 001693,-0.00000443,-0.00000956,0.00003815,-0.00003272,-0.00001547,0.00
 001653,0.00000176,-0.00000179,0.00007568,0.00006697,-0.00002214,0.0000
 1439,0.00002989,-0.00005518,0.00000411,0.00008839,-0.00001540,0.001087
 38,-0.00005422,0.00013386,-0.00005749,0.00022176,0.00007202,0.01254095
 ,-0.00884667,0.00717143,-0.00246427,0.00057907,0.00113271,0.00118190,-
 0.00091042,0.00090929,0.11200838,-0.13859916,0.00583922,0.02008403,-0.
 02322391,-0.00249173,-0.00023308,0.01506913,-0.04209828,0.01073243,-0.
 00265154,-0.00547651,0.00066391,-0.00016404,0.00069003,0.00364541,0.00
 646230,0.00165146,0.00005273,-0.00053277,-0.00048610,0.00046620,-0.000
 47748,0.00068480,0.09301984,-0.14592530,0.07784221,-0.01403241,0.01832
 511,0.04703841,-0.00116698,0.00019646,0.00027745,0.00047869,-0.0000547
 3,-0.00026275,-0.00006454,0.00004124,-0.00007438,0.00003836,-0.0001953
 3,-0.00005764,-0.24502620,0.33100946,-0.00102222,-0.00094958,0.0004364
 8,0.00026075,-0.00014765,-0.00016198,0.00002525,0.00007066,0.00001981,
 0.00008185,-0.00005907,-0.00003532,0.00011370,0.00006118,-0.00002278,0
 .00017015,-0.00000568,0.00010366,-0.00020944,-0.00035718,-0.00116926,-
 0.00008376,-0.00004983,-0.00027065,-0.00080311,-0.00135439,0.00343419,
 -0.00001606,-0.00000957,0.00000930,0.00004304,-0.00000877,0.00001543,0
 .00001251,-0.00001772,0.00000526,0.00004250,-0.00001728,-0.00001307,-0
 .00005658,-0.00004434,0.00002835,0.00065810,0.00078044,-0.00036687,-0.
 00010646,-0.00000977,0.00002579,-0.00001676,0.00012763,0.00010330,0.00
 102874,0.00133494,-0.00186758,0.00001229,-0.00002460,0.00001151,-0.001
 06459,-0.00036644,-0.00138982,0.00000008,-0.00000303,-0.00000241,-0.00
 002041,-0.00000365,0.00000070,-0.00000273,0.00000362,-0.00000241,0.000
 04983,-0.00008069,-0.00007003,0.00009312,0.00007849,0.00004583,-0.0009
 6518,-0.00062546,-0.00080729,0.00001119,-0.00000431,-0.00000911,-0.000
 02986,-0.00007902,0.00004371,-0.00000987,0.00001611,-0.00000616,-0.000
 00681,-0.00002653,0.00000114,-0.00002749,0.00001697,0.00001287,-0.0000
 0056,-0.00001825,-0.00022608,0.00000284,0.00002032,-0.00000255,0.00000
 403,0.00001010,0.00000147,0.00001977,-0.00000251,-0.00000384,0.0000069
 2,-0.00000350,-0.00000659,-0.00059680,-0.00008757,0.00017014,0.0000133
 9,0.00000659,0.00002654,-0.00004358,-0.00008380,0.00006468,-0.00001206
 ,-0.00000255,0.00000788,0.00001857,-0.00001015,-0.00000099,0.00003447,
 0.00004163,-0.00004006,0.00001103,0.00001474,-0.00000508,-0.00000397,0
 .00001899,-0.00000101,0.00000339,0.00000316,-0.00000540,0.00000594,-0.
 00000321,-0.00000242,0.00000372,0.00000187,-0.00000085,-0.00001139,0.0
 0000470,0.00000121,-0.00000274,0.00000390,0.00000077,-0.00000394,0.000
 00696,-0.00000104,0.00345964,-0.00125748,-0.00086087,0.00010356,-0.000
 00416,-0.00026153,-0.00795257,0.00239780,0.01232973,0.00235117,-0.0013
 3592,-0.00118811,0.00410302,-0.00240925,-0.00061766,0.07967330,-0.0321
 5095,-0.14068376,-0.02791998,0.01660879,-0.00239049,0.03636649,-0.0250
 7956,0.01594477,-0.01823847,0.00983032,0.00936296,-0.00018662,-0.00028
 464,0.00015910,0.00114569,0.00225873,-0.00462885,0.00019386,0.00074717
 ,0.00059864,-0.00041126,0.00032731,0.00030685,-0.09463357,0.11045105,-
 0.27197008,0.01030299,0.01788030,-0.08036262,-0.00008729,0.00001637,0.
 00010937,0.00021255,0.00045224,0.00018863,-0.00012828,-0.00012804,-0.0
 0008141,0.00000043,-0.00003962,-0.00001893,-0.10632112,-0.09027289,0.7
 7943474,-0.00009406,-0.00002686,0.00001697,0.00001778,-0.00002273,-0.0
 0001355,0.00000818,0.00000517,0.00000168,0.00000984,-0.00000214,0.0000
 0040,-0.00000057,0.00000781,0.00001612,0.00000375,-0.00004592,-0.00000
 886,-0.00000913,0.00001397,-0.00008647,-0.00004084,-0.00002070,0.00004
 664,-0.00013193,-0.00023708,0.00034590,-0.00000155,-0.00000088,0.00000
 295,0.00000506,0.00000022,0.00000224,0.00000334,-0.00000171,0.00000195
 ,0.00000341,-0.00000041,-0.00000250,0.00000128,0.00002283,0.00002778,0
 .00000328,0.00000083,-0.00006433,0.00000308,-0.00000431,-0.00001056,-0
 .00002057,0.00002146,-0.00001741,-0.00012902,0.00008104,-0.00026167,-0
 .00000200,-0.00000649,0.00000849,0.00001868,0.00028842,-0.00020083,-0.
 00000014,-0.00000038,-0.00000179,-0.00000272,0.00000059,-0.00000012,0.
 00000047,0.00000135,-0.00000047,0.00006938,-0.00003759,-0.00000267,-0.
 00005288,0.00011948,-0.00003575,-0.00029024,0.00003072,-0.00003436,0.0
 0001327,0.00000430,-0.00000512,-0.00000429,-0.00001347,-0.00000901,0.0
 0000564,0.00001933,-0.00000520,-0.00000870,-0.00002410,0.00000640,-0.0
 0002643,-0.00001568,0.00001010,0.00000610,0.00002214,-0.00000502,0.000
 00275,0.00001305,-0.00000432,0.00000302,0.00000785,0.00000026,0.000010
 02,0.00000562,-0.00000207,0.00000919,0.00000646,-0.00000653,0.00000303
 ,-0.00005081,-0.00000123,0.00000246,-0.00000455,-0.00000382,0.00000807
 ,0.00001160,0.00000219,-0.00001426,-0.00000507,0.00000697,0.00000685,-
 0.00000992,0.00000356,-0.00000704,-0.00000635,0.00000359,-0.00000337,-
 0.00000291,-0.00000246,0.00000003,-0.00000268,-0.00000178,0.00000373,0
 .00000326,-0.00000574,0.00000488,-0.00000107,-0.00000223,0.00000578,0.
 00000370,0.00000045,-0.00000252,0.00000313,-0.00000109,-0.00000113,0.0
 0000212,-0.00000237,-0.00000193,0.00000639,-0.00000107,0.00018090,0.00
 022089,0.00012909,0.00006745,-0.00016431,-0.00000691,-0.00057263,-0.00
 162680,-0.00127041,-0.00027137,0.00016480,0.00002409,-0.00247205,0.002
 67053,-0.00220593,-0.00103102,0.00108740,0.02058625,-0.00106938,0.0001
 7668,-0.00029200,-0.00203344,0.00495228,0.00131590,0.00003559,-0.00199
 339,-0.00055372,-0.00021520,-0.00063434,-0.00008354,-0.00019427,-0.000
 57409,0.00079383,0.00001160,-0.00001413,-0.00000576,-0.00231486,0.0006
 7004,0.00060212,0.00979210,-0.00068105,-0.01799261,0.00094220,0.005788
 17,-0.00251262,-0.00004753,-0.00002288,0.00005365,0.00006628,-0.000039
 66,-0.00002475,-0.00002370,-0.00000717,0.00000252,0.00000292,0.0000280
 0,0.00001740,-0.10463744,0.00809311,0.12035567,0.10439682,0.00006299,-
 0.00009851,0.00006350,-0.00001727,-0.00000096,0.00000306,0.00000833,0.
 00000230,-0.00001388,-0.00000876,0.00000016,0.00000574,0.00000474,0.00
 000495,-0.00001750,-0.00000553,0.00003711,0.00003686,-0.00001911,0.000
 02691,-0.00020005,-0.00011585,-0.00007659,0.00020508,-0.00037668,-0.00
 031708,0.00075210,-0.00000201,-0.00000607,0.00000155,-0.00000336,0.000
 00212,-0.00000336,-0.00000471,0.00000005,-0.00000149,-0.00000211,0.000
 00201,0.00000204,0.00000094,-0.00002682,-0.00002929,0.00028129,-0.0000
 0540,-0.00018098,0.00011811,0.00001162,-0.00005400,-0.00001598,0.00006
 344,-0.00013493,0.00055857,-0.00022764,-0.00078527,-0.00001524,-0.0000
 1361,0.00006198,-0.00045499,-0.00036147,-0.00012684,-0.00000159,0.0000
 0185,-0.00000678,0.00000430,0.00000091,-0.00000786,0.00000470,0.000002
 92,-0.00000911,0.00005070,-0.00009201,-0.00020091,0.00004085,0.0000736
 4,-0.00005217,-0.00006285,0.00008746,0.00004267,0.00004773,-0.00000824
 ,0.00002351,0.00002769,-0.00000332,-0.00003329,0.00002724,0.00005045,-
 0.00000837,-0.00004613,-0.00006368,0.00000975,-0.00006403,0.00002070,-
 0.00004553,-0.00006269,-0.00000109,0.00009931,0.00001856,0.00003301,-0
 .00000706,0.00001643,0.00002345,0.00000458,0.00004293,-0.00000731,0.00
 001949,0.00001446,-0.00001035,0.00001751,0.00006087,-0.00002168,-0.000
 04909,0.00000535,-0.00000462,-0.00003552,-0.00003981,0.00002095,0.0000
 0747,-0.00002976,0.00000024,0.00000594,-0.00001249,-0.00003190,0.00001
 944,0.00001222,-0.00000597,-0.00000387,0.00001884,-0.00000235,0.000002
 67,0.00001328,-0.00001451,-0.00001410,0.00000768,0.00000063,-0.0000005
 7,0.00001270,-0.00000785,-0.00000323,0.00001237,0.00000588,0.00000253,
 0.00001290,0.00001154,-0.00000367,0.00000293,0.00000559,-0.00001303,0.
 00000025,0.00001838,-0.00000382,0.00042899,0.00006632,-0.00016883,-0.0
 0001780,0.00012316,0.00001985,-0.00129116,-0.00251617,0.00062233,-0.00
 041571,0.00028137,-0.00021729,0.00176814,-0.00121295,0.00135137,0.0067
 6780,0.00742305,-0.01243048,-0.00044984,-0.00057227,-0.00041444,0.0052
 3344,0.00279261,0.00099558,-0.00198288,-0.00196923,-0.00052218,-0.0006
 0086,-0.00075230,-0.00018946,-0.00036603,-0.00056480,-0.00073320,-0.00
 002934,-0.00012979,-0.00000546,0.00073049,-0.00031252,-0.00009160,-0.0
 0730508,0.00216538,0.01574693,0.00619277,0.00449652,0.00247364,-0.0001
 9201,-0.00005866,0.00006678,-0.00007396,0.00002637,0.00002112,0.000013
 85,0.00001840,-0.00002055,0.00001123,-0.00006797,-0.00002202,0.0097020
 4,-0.04642833,-0.00617447,-0.01825311,0.03809252,-0.00002819,-0.000094
 80,0.00008193,0.00000321,-0.00002908,-0.00003559,0.00002544,-0.0000047
 3,-0.00001163,0.00001925,-0.00000229,0.00001607,-0.00000843,0.00000525
 ,0.00000191,0.00001235,-0.00001037,0.00004097,-0.00004337,-0.00016622,
 0.00021616,0.00013168,0.00009533,-0.00031715,0.00036180,0.00041565,-0.
 00042478,-0.00000285,-0.00000258,-0.00000148,0.00000678,0.00000046,0.0
 0000231,0.00000371,-0.00000121,0.00000063,0.00000555,-0.00000454,-0.00
 000277,-0.00000480,0.00001918,0.00000209,-0.00020285,-0.00002625,0.000
 03131,-0.00019211,-0.00002147,0.00004847,0.00004805,-0.00006040,0.0001
 5398,-0.00116279,-0.00217140,-0.00055874,0.00001386,0.00001644,-0.0000
 6212,0.00017592,0.00047651,0.00053319,0.00000182,-0.00000070,0.0000071
 7,-0.00000262,-0.00000014,0.00000758,-0.00000481,-0.00000319,0.0000087
 6,0.00009127,-0.00011687,-0.00031093,0.00001498,0.00000633,-0.00011518
 ,-0.00008112,0.00004003,0.00006343,-0.00004949,0.00000351,-0.00004141,
 -0.00005047,-0.00001840,0.00002616,-0.00002172,-0.00005080,-0.00000763
 ,0.00003408,0.00007023,0.00001634,0.00005056,-0.00000778,0.00007659,0.
 00012391,0.00001884,-0.00013018,-0.00001606,-0.00004177,-0.00000600,-0
 .00001548,-0.00002622,-0.00001194,-0.00003609,0.00000191,-0.00003165,-
 0.00000862,0.00001003,-0.00003102,-0.00010579,-0.00003597,0.00008521,-
 0.00001702,0.00000153,0.00003664,0.00005392,-0.00002438,0.00000255,0.0
 0002296,0.00000291,0.00000362,0.00001300,0.00003966,-0.00000746,-0.000
 01436,0.00000612,0.00000207,-0.00002901,0.00000108,-0.00000742,-0.0000
 1796,0.00001677,0.00001466,-0.00000600,0.00000098,-0.00000529,-0.00000
 836,0.00000397,0.00000049,-0.00001204,-0.00000730,-0.00000530,-0.00001
 256,-0.00001391,0.00000141,-0.00000222,-0.00000743,0.00000462,-0.00000
 019,-0.00002064,0.00000138,0.00015268,0.00033081,-0.00010916,0.0000147
 5,-0.00006579,0.00000544,0.00067330,-0.00162727,-0.00002809,-0.0001255
 2,0.00005086,-0.00019157,-0.00080973,0.00028774,0.00096424,-0.00123594
 ,0.00162408,0.00449953,0.00067480,-0.00080784,0.00053075,-0.00001093,0
 .00154735,0.00013382,-0.00053223,-0.00054038,0.00018709,-0.00001234,-0
 .00028219,-0.00003120,-0.00021075,-0.00010954,0.00015990,0.00004867,0.
 00005612,0.00005867,0.00068062,-0.00023883,-0.00049147,0.00756022,0.00
 029441,-0.02052650,-0.00227358,0.00321464,0.00250434,0.00019674,0.0000
 6162,0.00002647,0.00000360,0.00001153,0.00003507,-0.00001258,-0.000021
 17,0.00000892,-0.00001251,0.00003675,0.00000128,0.11481054,-0.00245590
 ,-0.31344984,-0.11863652,0.00035114,0.32635024\\-0.00000030,0.00000418
 ,0.00000761,-0.00000264,0.00000609,0.00000613,0.00000024,0.00000642,0.
 00000948,0.00000122,0.00000872,0.00001093,0.00000237,0.00000780,0.0000
 0769,0.00000381,0.00000573,0.00000398,0.00000314,0.00000291,-0.0000077
 6,-0.00001696,0.00000797,-0.00000886,0.00001126,-0.00000750,-0.0000015
 8,-0.00000359,0.00000507,0.00000781,-0.00000277,0.00000732,0.00000950,
 0.00000158,0.00000940,0.00001075,0.00000503,0.00000861,0.00000910,0.00
 000489,0.00000633,0.00000701,-0.00000418,0.00001909,0.00001066,0.00001
 054,-0.00001676,0.00000605,0.00000461,-0.00000114,0.00001011,-0.000000
 03,-0.00000041,-0.00000369,-0.00000284,0.00000004,-0.00000418,0.000004
 59,0.00000422,0.00000282,-0.00000418,-0.00000137,0.00000136,-0.0000028
 3,-0.00000228,-0.00000080,-0.00000162,-0.00000260,-0.00000287,0.000005
 13,0.00000250,0.00000062,0.00000655,0.00000024,-0.00000226,0.00000301,
 -0.00000059,-0.00000129,0.00003046,-0.00000060,0.00002641,-0.00000633,
 -0.00000166,0.00000173,0.00000070,-0.00000187,0.00000144,0.00002030,-0
 .00000548,0.00001582,-0.00001177,-0.00003403,-0.00003520,-0.00000563,-
 0.00000985,0.00000129,0.00000188,0.00000723,0.00000141,-0.00000066,0.0
 0000037,-0.00001494,-0.00000603,0.00000319,-0.00000249,0.00000214,-0.0
 0000174,-0.00000434,-0.00000125,-0.00000154,0.00001321,-0.00001116,-0.
 00000705,-0.00000561,0.00000041,-0.00001028,-0.00000410,0.00000659,-0.
 00001117,-0.00000393,-0.00000192,-0.00001172,-0.00000696,-0.00000427,0
 .00000098,-0.00000856,-0.00001045,-0.00001009,-0.00000915,-0.00000943,
 -0.00000591,-0.00000343,0.00000322,-0.00000546,-0.00001222,-0.00000189
 ,-0.00000667,-0.00001335,0.00000383,-0.00000855,-0.00001016,0.00000413
 ,-0.00000301,-0.00000035,0.00000480,-0.00000608,-0.00000342,0.00000838
 ,0.00000481,-0.00000203,-0.00000326,0.00000119,0.00000490,-0.00000140,
 0.00000214,0.00000389,0.00000173,0.00000357,-0.00000289,-0.00000247,0.
 00000693,0.00000634,-0.00000113,0.00000516,0.00000261,-0.00000100,0.00
 000084,0.00000050,-0.00000822,0.00000089,0.00000480,-0.00000359,0.0000
 0205,0.00000093,-0.00000274,-0.00000078,0.00000088,-0.00000258,0.00000
 186,-0.00000116,-0.00000631,-0.00000400,-0.00000274,-0.00000378,0.0000
 0557,0.00000926,0.00000288,0.00000463,0.00000894,-0.00000464,-0.000001
 13,0.00002369,0.00000139,-0.00000018,-0.00000190,-0.00001039,0.0000014
 5,-0.00008029,0.00000224,0.00000540,0.00000589,0.00000150,0.00000387,0
 .00000196,0.00000328,0.00000291,0.00000378,-0.00000312,0.00000039,-0.0
 0000227,-0.00000048,0.00000343,0.00000352\\\@


      LET US REMEMBER, PLEASE, THAT THE SEARCH FOR THE CONSTITUTION
      OF THE WORLD IS ONE OF THE GREATEST AND NOBLEST PROBLEMS PRESENTED 
      BY NATURE.

                                                  -- GALILEO
 Job cpu time:       2 days 13 hours 28 minutes 45.7 seconds.
 Elapsed time:       0 days  2 hours 39 minutes 46.0 seconds.
 File lengths (MBytes):  RWF=   6956 Int=      0 D2E=      0 Chk=     72 Scr=      8
 Normal termination of Gaussian 16 at Fri Jan 31 18:24:57 2025.
