 Entering Gaussian System, Link 0=/sysapps/ubuntu-applications/gaussian-new/avx/g16//g16
 Input=irc-yb-min.in
 Output=irc-yb-min.log
 Initial command:
 /sysapps/ubuntu-applications/gaussian-new/avx/g16/l1.exe "/data/temp-scratch/selhajj1/109000/Gau-2335304.inp" -scrdir="/data/temp-scratch/selhajj1/109000/"
 Entering Link 1 = /sysapps/ubuntu-applications/gaussian-new/avx/g16/l1.exe PID=   2335306.
  
 Copyright (c) 1988,1990,1992,1993,1995,1998,2003,2009,2016,
            Gaussian, Inc.  All Rights Reserved.
  
 This is part of the Gaussian(R) 16 program.  It is based on
 the Gaussian(R) 09 system (copyright 2009, Gaussian, Inc.),
 the Gaussian(R) 03 system (copyright 2003, Gaussian, Inc.),
 the Gaussian(R) 98 system (copyright 1998, Gaussian, Inc.),
 the Gaussian(R) 94 system (copyright 1995, Gaussian, Inc.),
 the Gaussian 92(TM) system (copyright 1992, Gaussian, Inc.),
 the Gaussian 90(TM) system (copyright 1990, Gaussian, Inc.),
 the Gaussian 88(TM) system (copyright 1988, Gaussian, Inc.),
 the Gaussian 86(TM) system (copyright 1986, Carnegie Mellon
 University), and the Gaussian 82(TM) system (copyright 1983,
 Carnegie Mellon University). Gaussian is a federally registered
 trademark of Gaussian, Inc.
  
 This software contains proprietary and confidential information,
 including trade secrets, belonging to Gaussian, Inc.
  
 This software is provided under written license and may be
 used, copied, transmitted, or stored only in accord with that
 written license.
  
 The following legend is applicable only to US Government
 contracts under FAR:
  
                    RESTRICTED RIGHTS LEGEND
  
 Use, reproduction and disclosure by the US Government is
 subject to restrictions as set forth in subparagraphs (a)
 and (c) of the Commercial Computer Software - Restricted
 Rights clause in FAR 52.227-19.
  
 Gaussian, Inc.
 340 Quinnipiac St., Bldg. 40, Wallingford CT 06492
  
  
 ---------------------------------------------------------------
 Warning -- This program may not be used in any manner that
 competes with the business of Gaussian, Inc. or will provide
 assistance to any competitor of Gaussian, Inc.  The licensee
 of this program is prohibited from giving any competitor of
 Gaussian, Inc. access to this program.  By using this program,
 the user acknowledges that Gaussian, Inc. is engaged in the
 business of creating and licensing software in the field of
 computational chemistry and represents and warrants to the
 licensee that it is not a competitor of Gaussian, Inc. and that
 it will not use this program in any manner prohibited above.
 ---------------------------------------------------------------
  

 Cite this work as:
 Gaussian 16, Revision A.03,
 M. J. Frisch, G. W. Trucks, H. B. Schlegel, G. E. Scuseria, 
 M. A. Robb, J. R. Cheeseman, G. Scalmani, V. Barone, 
 G. A. Petersson, H. Nakatsuji, X. Li, M. Caricato, A. V. Marenich, 
 J. Bloino, B. G. Janesko, R. Gomperts, B. Mennucci, H. P. Hratchian, 
 J. V. Ortiz, A. F. Izmaylov, J. L. Sonnenberg, D. Williams-Young, 
 F. Ding, F. Lipparini, F. Egidi, J. Goings, B. Peng, A. Petrone, 
 T. Henderson, D. Ranasinghe, V. G. Zakrzewski, J. Gao, N. Rega, 
 G. Zheng, W. Liang, M. Hada, M. Ehara, K. Toyota, R. Fukuda, 
 J. Hasegawa, M. Ishida, T. Nakajima, Y. Honda, O. Kitao, H. Nakai, 
 T. Vreven, K. Throssell, J. A. Montgomery, Jr., J. E. Peralta, 
 F. Ogliaro, M. J. Bearpark, J. J. Heyd, E. N. Brothers, K. N. Kudin, 
 V. N. Staroverov, T. A. Keith, R. Kobayashi, J. Normand, 
 K. Raghavachari, A. P. Rendell, J. C. Burant, S. S. Iyengar, 
 J. Tomasi, M. Cossi, J. M. Millam, M. Klene, C. Adamo, R. Cammi, 
 J. W. Ochterski, R. L. Martin, K. Morokuma, O. Farkas, 
 J. B. Foresman, and D. J. Fox, Gaussian, Inc., Wallingford CT, 2016.
 
 ******************************************
 Gaussian 16:  ES64L-G16RevA.03 25-Dec-2016
                24-Mar-2025 
 ******************************************
 %chk=ts-min.chk
 %mem=616Gb
 %nprocshared=24
 Will use up to   24 processors via shared memory.
 ----------------------------------------------------------------------
 # irc=(maxpoints=100,recorrect=never,calcfc,maxcycles=500,nogradstop) 
 UMN15/genecp scrf=(smd,solvent=DiChloroEthane)
 ----------------------------------------------------------------------
 1/6=500,10=4,18=10,26=3,38=1,42=100,44=3,108=-1,131=1,172=1/1,23;
 2/12=2,17=6,18=5,29=1,40=1/2;
 3/5=7,11=2,16=1,17=8,25=1,30=1,70=32201,71=2,72=10,74=-73,116=2,140=1/1,2,3;
 4//1;
 5/5=2,38=5,53=10/2;
 8/6=4,10=90,11=11/1;
 11/6=1,8=1,9=11,15=111,16=1/1,2,10;
 10/6=1,13=1/2;
 6/7=2,8=2,9=2,10=2,28=1/1;
 7/10=1,18=20,25=1/1,2,3,16;
 1/6=500,10=4,18=10,26=3,42=100,44=3,108=-1,131=1/23(2);
 2/29=1/2;
 99/5=20/99;
 2/29=1/2;
 3/5=7,6=1,11=2,16=1,17=8,25=1,30=1,70=32205,71=2,72=10,74=-73,82=7,116=2,140=1/1,2,3;
 4/5=5,16=3,69=1/1;
 5/5=2,38=5,53=10/2;
 8/6=4,10=90,11=11/1;
 11/6=1,8=1,9=11,15=111,16=1/1,2,10;
 10/6=1,13=1/2;
 7/10=1,18=20,25=1/1,2,3,16;
 1/6=500,18=10,26=3,42=100,44=3,108=-1,131=1/23(-8);
 2/29=1/2;
 6/7=2,8=2,9=2,10=2,19=2,28=1/1;
 99/5=20,9=1/99;
 -----------------------------------------------------------
 IRC for Going from i2 to i3, where we are forming bond 7-56
 -----------------------------------------------------------
 Symbolic Z-matrix:
 Charge =  0 Multiplicity = 2
 C                     1.66564  -0.7468   -0.74594 
 C                     1.55397   0.18549   0.48636 
 C                     0.31871  -1.15152  -1.39868 
 O                    -0.4527   -0.24059  -1.62598 
 O                     0.48251   0.73887   0.64909 
 O                    -2.9745   -1.4576   -0.6688 
 O                    -1.73133  -0.34206   2.32844 
 O                    -1.13309   2.89171  -0.886 
 S                    -1.36573   3.75779   0.29547 
 S                    -3.50476  -0.94958  -1.95685 
 S                    -0.80132  -1.49258   2.29308 
 O                    -1.7502    2.9162    1.45332 
 O                    -2.14036   4.96271   0.07516 
 O                    -3.27521   0.51024  -2.05783 
 O                    -3.22905  -1.74858  -3.13646 
 O                    -0.45885  -1.88931   0.9127 
 O                     0.32029  -1.44054   3.22263 
 C                    -1.81999  -2.89634   2.89082 
 C                    -5.32229  -1.05839  -1.72318 
 C                     0.3011    4.39508   0.73317 
 F                    -1.11109  -4.01508   2.79069 
 F                    -2.91776  -3.01362   2.16502 
 F                    -2.15257  -2.70974   4.15781 
 F                    -5.67524  -0.34171  -0.66136 
 F                    -5.6844   -2.31726  -1.52903 
 F                    -5.95202  -0.58616  -2.78748 
 F                     1.11541   3.41529   1.09367 
 F                     0.1963    5.254     1.73553 
 F                     0.82143   5.0208   -0.31598 
 C                     3.82913  -0.21969  -1.88254 
 C                     4.46247  -1.63512  -1.63517 
 C                     5.92996  -1.64196  -1.76085 
 C                     3.92116  -2.52832  -2.6847 
 C                     2.33476  -2.93764   1.15795 
 C                     4.59395  -2.49382   1.84287 
 C                     3.27276  -2.92261   2.15541 
 H                     1.31629  -3.29092   1.31648 
 H                     5.38413  -2.47623   2.59655 
 H                     3.03496  -3.26074   3.16438 
 N                     7.06977  -1.64965  -1.95211 
 N                     3.47967  -3.20877  -3.50846 
 N                     4.03105  -2.14079  -0.31545 
 N                     4.94732  -2.10666   0.64081 
 C                     2.70051  -2.47537  -0.14357 
 H                     2.23199  -2.92931  -1.0219 
 H                     4.01313  -0.00138  -2.94596 
 C                     4.27439   0.96638  -1.05699 
 C                     3.48324   2.11931  -1.19036 
 C                     5.40533   0.9951   -0.23309 
 C                     3.8187    3.28412  -0.50233 
 H                     2.59777   2.10245  -1.83255 
 C                     5.73098   2.1636    0.45979 
 H                     6.03737   0.11764  -0.09454 
 C                     4.94184   3.30695   0.32849 
 H                     3.1961    4.17274  -0.61224 
 H                     6.60999   2.17368   1.10721 
 H                     5.203     4.21793   0.87109 
 Yb                   -1.98823   0.74432   0.11916 
 O                     2.42607  -0.45403  -1.83139 
 C                     0.08703  -2.53307  -1.90592 
 H                    -0.90027  -2.55066  -2.38388 
 H                     0.85994  -2.79488  -2.64832 
 H                     0.11342  -3.26301  -1.08464 
 C                     2.61253   0.35351   1.52592 
 H                     2.17275  -0.02549   2.46327 
 H                     3.56152  -0.14409   1.328 
 H                     2.79379   1.43234   1.65214 
 
 IRC-IRC-IRC-IRC-IRC-IRC-IRC-IRC-IRC-IRC-IRC-IRC-IRC-IRC-IRC-IRC-IRC-IRC
 ------------------------------------------------------------------------
 INPUT DATA FOR L123
 ------------------------------------------------------------------------
 GENERAL PARAMETERS:
 Follow reaction path in both directions.
 Maximum points per path      = 100
 Step size                    =   0.100 bohr
 Integration scheme           = HPC                                 
    Redo corrector integration= Never                               
    DWI Weight Power          =  2
    DWI will use Hessian update vectors when possible.
 Initial Hessian              = CalcFC
 Hessian evaluation           = All updating
 Hessian updating method      = Bofill                              
 ------------------------------------------------------------------------
 IRC-IRC-IRC-IRC-IRC-IRC-IRC-IRC-IRC-IRC-IRC-IRC-IRC-IRC-IRC-IRC-IRC-IRC
 Symmetry turned off by external request.
 Stoichiometry    C22H16F9N4O12S3Yb(2)
 Framework group  C1[X(C22H16F9N4O12S3Yb)]
 Deg. of freedom   195
 Full point group                 C1      NOp   1
                          Input orientation:                          
 ---------------------------------------------------------------------
 Center     Atomic      Atomic             Coordinates (Angstroms)
 Number     Number       Type             X           Y           Z
 ---------------------------------------------------------------------
      1          6           0        1.665639   -0.746804   -0.745940
      2          6           0        1.553966    0.185490    0.486356
      3          6           0        0.318713   -1.151523   -1.398676
      4          8           0       -0.452701   -0.240587   -1.625983
      5          8           0        0.482512    0.738869    0.649089
      6          8           0       -2.974504   -1.457603   -0.668802
      7          8           0       -1.731333   -0.342062    2.328438
      8          8           0       -1.133087    2.891710   -0.886003
      9         16           0       -1.365725    3.757791    0.295469
     10         16           0       -3.504760   -0.949578   -1.956848
     11         16           0       -0.801320   -1.492575    2.293077
     12          8           0       -1.750204    2.916202    1.453315
     13          8           0       -2.140363    4.962714    0.075158
     14          8           0       -3.275211    0.510236   -2.057831
     15          8           0       -3.229045   -1.748575   -3.136463
     16          8           0       -0.458851   -1.889314    0.912697
     17          8           0        0.320285   -1.440544    3.222630
     18          6           0       -1.819993   -2.896336    2.890822
     19          6           0       -5.322291   -1.058388   -1.723181
     20          6           0        0.301103    4.395075    0.733171
     21          9           0       -1.111094   -4.015077    2.790688
     22          9           0       -2.917757   -3.013618    2.165021
     23          9           0       -2.152568   -2.709742    4.157811
     24          9           0       -5.675235   -0.341711   -0.661357
     25          9           0       -5.684404   -2.317260   -1.529028
     26          9           0       -5.952019   -0.586163   -2.787481
     27          9           0        1.115413    3.415292    1.093667
     28          9           0        0.196296    5.254001    1.735531
     29          9           0        0.821427    5.020796   -0.315979
     30          6           0        3.829132   -0.219691   -1.882544
     31          6           0        4.462470   -1.635120   -1.635167
     32          6           0        5.929960   -1.641962   -1.760850
     33          6           0        3.921162   -2.528324   -2.684704
     34          6           0        2.334757   -2.937640    1.157947
     35          6           0        4.593954   -2.493817    1.842869
     36          6           0        3.272762   -2.922606    2.155412
     37          1           0        1.316288   -3.290916    1.316483
     38          1           0        5.384131   -2.476225    2.596545
     39          1           0        3.034956   -3.260743    3.164377
     40          7           0        7.069766   -1.649645   -1.952114
     41          7           0        3.479668   -3.208769   -3.508461
     42          7           0        4.031051   -2.140792   -0.315447
     43          7           0        4.947324   -2.106659    0.640805
     44          6           0        2.700505   -2.475371   -0.143571
     45          1           0        2.231986   -2.929311   -1.021904
     46          1           0        4.013130   -0.001377   -2.945958
     47          6           0        4.274388    0.966384   -1.056986
     48          6           0        3.483235    2.119308   -1.190358
     49          6           0        5.405326    0.995100   -0.233090
     50          6           0        3.818696    3.284125   -0.502334
     51          1           0        2.597773    2.102450   -1.832546
     52          6           0        5.730975    2.163601    0.459794
     53          1           0        6.037371    0.117635   -0.094536
     54          6           0        4.941839    3.306949    0.328487
     55          1           0        3.196099    4.172743   -0.612235
     56          1           0        6.609994    2.173680    1.107213
     57          1           0        5.202998    4.217930    0.871093
     58         70           0       -1.988227    0.744324    0.119155
     59          8           0        2.426067   -0.454032   -1.831390
     60          6           0        0.087030   -2.533069   -1.905924
     61          1           0       -0.900266   -2.550664   -2.383884
     62          1           0        0.859942   -2.794881   -2.648324
     63          1           0        0.113424   -3.263011   -1.084640
     64          6           0        2.612528    0.353510    1.525918
     65          1           0        2.172751   -0.025490    2.463266
     66          1           0        3.561515   -0.144087    1.328003
     67          1           0        2.793792    1.432339    1.652140
 ---------------------------------------------------------------------
 Rotational constants (GHZ):           0.0640594           0.0417005           0.0344929
 General basis read from cards:  (5D, 7F)
 ======================================================================================================
                                       Pseudopotential Parameters
 ======================================================================================================
  Center     Atomic      Valence      Angular      Power
  Number     Number     Electrons     Momentum     of R      Exponent        Coefficient   SO-Coeffient
 ======================================================================================================
    1          6
                                   No pseudopotential on this center.
    2          6
                                   No pseudopotential on this center.
    3          6
                                   No pseudopotential on this center.
    4          8
                                   No pseudopotential on this center.
    5          8
                                   No pseudopotential on this center.
    6          8
                                   No pseudopotential on this center.
    7          8
                                   No pseudopotential on this center.
    8          8
                                   No pseudopotential on this center.
    9         16
                                   No pseudopotential on this center.
   10         16
                                   No pseudopotential on this center.
   11         16
                                   No pseudopotential on this center.
   12          8
                                   No pseudopotential on this center.
   13          8
                                   No pseudopotential on this center.
   14          8
                                   No pseudopotential on this center.
   15          8
                                   No pseudopotential on this center.
   16          8
                                   No pseudopotential on this center.
   17          8
                                   No pseudopotential on this center.
   18          6
                                   No pseudopotential on this center.
   19          6
                                   No pseudopotential on this center.
   20          6
                                   No pseudopotential on this center.
   21          9
                                   No pseudopotential on this center.
   22          9
                                   No pseudopotential on this center.
   23          9
                                   No pseudopotential on this center.
   24          9
                                   No pseudopotential on this center.
   25          9
                                   No pseudopotential on this center.
   26          9
                                   No pseudopotential on this center.
   27          9
                                   No pseudopotential on this center.
   28          9
                                   No pseudopotential on this center.
   29          9
                                   No pseudopotential on this center.
   30          6
                                   No pseudopotential on this center.
   31          6
                                   No pseudopotential on this center.
   32          6
                                   No pseudopotential on this center.
   33          6
                                   No pseudopotential on this center.
   34          6
                                   No pseudopotential on this center.
   35          6
                                   No pseudopotential on this center.
   36          6
                                   No pseudopotential on this center.
   37          1
                                   No pseudopotential on this center.
   38          1
                                   No pseudopotential on this center.
   39          1
                                   No pseudopotential on this center.
   40          7
                                   No pseudopotential on this center.
   41          7
                                   No pseudopotential on this center.
   42          7
                                   No pseudopotential on this center.
   43          7
                                   No pseudopotential on this center.
   44          6
                                   No pseudopotential on this center.
   45          1
                                   No pseudopotential on this center.
   46          1
                                   No pseudopotential on this center.
   47          6
                                   No pseudopotential on this center.
   48          6
                                   No pseudopotential on this center.
   49          6
                                   No pseudopotential on this center.
   50          6
                                   No pseudopotential on this center.
   51          1
                                   No pseudopotential on this center.
   52          6
                                   No pseudopotential on this center.
   53          1
                                   No pseudopotential on this center.
   54          6
                                   No pseudopotential on this center.
   55          1
                                   No pseudopotential on this center.
   56          1
                                   No pseudopotential on this center.
   57          1
                                   No pseudopotential on this center.
   58         70           42
                                      H and up 
                                                     2        1.0000000        0.00000000    0.00000000
                                      S - H
                                                     2       32.4244840      891.01377700    0.00000000
                                      P - H
                                                     2       18.6562320      264.03695300    0.00000000
                                      D - H
                                                     2       10.4902220       73.92391900    0.00000000
                                      F - H
                                                     2       20.7741830      -39.59217300    0.00000000
                                      G - H
                                                     2       28.4310280      -34.63863800    0.00000000
   59          8
                                   No pseudopotential on this center.
   60          6
                                   No pseudopotential on this center.
   61          1
                                   No pseudopotential on this center.
   62          1
                                   No pseudopotential on this center.
   63          1
                                   No pseudopotential on this center.
   64          6
                                   No pseudopotential on this center.
   65          1
                                   No pseudopotential on this center.
   66          1
                                   No pseudopotential on this center.
   67          1
                                   No pseudopotential on this center.
 ======================================================================================================
   888 basis functions,  1612 primitive gaussians,   961 cartesian basis functions
   222 alpha electrons      221 beta electrons
       nuclear repulsion energy     10833.7584157208 Hartrees.
 NAtoms=   67 NActive=   67 NUniq=   67 SFac= 1.00D+00 NAtFMM=   60 NAOKFM=T Big=T
 Integral buffers will be    131072 words long.
 Raffenetti 2 integral format.
 Two-electron integral symmetry is turned off.
 Force inversion solution in PCM.
 ------------------------------------------------------------------------------
 Polarizable Continuum Model (PCM)
 =================================
 Model                : PCM.
 Atomic radii         : SMD-Coulomb.
 Polarization charges : Total charges.
 Charge compensation  : None.
 Solution method      : Matrix inversion.
 Cavity type          : VdW (van der Waals Surface) (Alpha=1.000).
 Cavity algorithm     : GePol (No added spheres)
                        Default sphere list used, NSphG=   67.
                        Lebedev-Laikov grids with approx.  5.0 points / Ang**2.
                        Smoothing algorithm: York/Karplus (Gamma=1.0000).
                        Polarization charges: spherical gaussians, with
                                              point-specific exponents (IZeta= 3).
                        Self-potential: point-specific (ISelfS= 7).
                        Self-field    : sphere-specific E.n sum rule (ISelfD= 2).
 1st derivatives      : Analytical E(r).r(x)/FMM algorithm (CHGder, D1EAlg=3).
                        Cavity 1st derivative terms included.
 2nd derivatives      : Analytical E(r).r(xy)/FMM algorithm (CHGder, D2EAlg=3).
                        Cavity 2nd derivative terms included.
 Solvent              : DiChloroEthane, Eps=  10.125000 Eps(inf)=   2.087447
 ------------------------------------------------------------------------------
 ------------------------------------------------------------------------------
 Atomic radii for non-electrostatic terms: SMD-CDS.
 ------------------------------------------------------------------------------
 Nuclear repulsion after PCM non-electrostatic terms =    10833.7639356555 Hartrees.
 One-electron integrals computed using PRISM.
   1 Symmetry operations used in ECPInt.
 ECPInt:  NShTT=   73153 NPrTT=  279412 LenC2=   57340 LenP2D=  134491.
 LDataN:  DoStor=T MaxTD1= 9 Len=  602
 NBasis=   888 RedAO= T EigKep=  2.12D-04  NBF=   888
 NBsUse=   888 1.00D-06 EigRej= -1.00D+00 NBFU=   888
 Defaulting to unpruned grid for atomic number  70.
 ExpMin= 2.50D-02 ExpMax= 9.20D+04 ExpMxC= 1.38D+04 IAcc=3 IRadAn=         5 AccDes= 0.00D+00
 Harris functional with IExCor= 1009 and IRadAn=       5 diagonalized for initial guess.
 HarFok:  IExCor= 1009 AccDes= 0.00D+00 IRadAn=         5 IDoV= 1 UseB2=F ITyADJ=14
 ICtDFT=  3500011 ScaDFX=  1.000000  1.000000  1.000000  1.000000
 Defaulting to unpruned grid for atomic number  70.
 FoFCou: FMM=F IPFlag=           0 FMFlag=      100000 FMFlg1=        2001
         NFxFlg=           0 DoJE=T BraDBF=F KetDBF=T FulRan=T
         wScrn=  0.000000 ICntrl=       500 IOpCl=  0 I1Cent=   200000004 NGrid=           0
         NMat0=    1 NMatS0=      1 NMatT0=    0 NMatD0=    1 NMtDS0=    0 NMtDT0=    0
 Symmetry not used in FoFCou.
 Initial guess <Sx>= 0.0000 <Sy>= 0.0000 <Sz>= 0.5000 <S**2>= 0.7500 S= 0.5000
 Requested convergence on RMS density matrix=1.00D-08 within 128 cycles.
 Requested convergence on MAX density matrix=1.00D-06.
 Requested convergence on             energy=1.00D-06.
 No special actions if energy rises.
 Defaulting to unpruned grid for atomic number  70.
 Defaulting to unpruned grid for atomic number  70.
 Defaulting to unpruned grid for atomic number  70.
 Defaulting to unpruned grid for atomic number  70.
 Defaulting to unpruned grid for atomic number  70.
 Defaulting to unpruned grid for atomic number  70.
 Defaulting to unpruned grid for atomic number  70.
 Defaulting to unpruned grid for atomic number  70.
 Defaulting to unpruned grid for atomic number  70.
 Defaulting to unpruned grid for atomic number  70.
 Defaulting to unpruned grid for atomic number  70.
 Defaulting to unpruned grid for atomic number  70.
 Defaulting to unpruned grid for atomic number  70.
 Defaulting to unpruned grid for atomic number  70.
 Defaulting to unpruned grid for atomic number  70.
 Defaulting to unpruned grid for atomic number  70.
 Defaulting to unpruned grid for atomic number  70.
 Defaulting to unpruned grid for atomic number  70.
 Defaulting to unpruned grid for atomic number  70.
 Defaulting to unpruned grid for atomic number  70.
 Defaulting to unpruned grid for atomic number  70.
 Defaulting to unpruned grid for atomic number  70.
 Defaulting to unpruned grid for atomic number  70.
 Defaulting to unpruned grid for atomic number  70.
 Inv3:  Mode=1 IEnd=    66693675.
 Iteration    1 A*A^-1 deviation from unit magnitude is 6.88D-15 for   4698.
 Iteration    1 A*A^-1 deviation from orthogonality  is 3.02D-15 for   4687   3868.
 Iteration    1 A^-1*A deviation from unit magnitude is 6.88D-15 for   4698.
 Iteration    1 A^-1*A deviation from orthogonality  is 1.29D-13 for   2700   2665.
 EnCoef did   100 forward-backward iterations
 EnCoef did   100 forward-backward iterations
 Restarting incremental Fock formation.
 Error on total polarization charges =  0.02991
 SCF Done:  E(UMN15) =  -5218.53710649     A.U. after   24 cycles
            NFock= 24  Conv=0.39D-08     -V/T= 2.0934
 <Sx>= 0.0000 <Sy>= 0.0000 <Sz>= 0.5000 <S**2>= 0.7609 S= 0.5054
 <L.S>=  0.00000000000    
 SMD-CDS (non-electrostatic) energy       (kcal/mol) =       3.46
 (included in total energy above)
 Annihilation of the first spin contaminant:
 S**2 before annihilation     0.7609,   after     0.7501
 DoSCS=F DFT=T ScalE2(SS,OS)=  1.000000  1.000000
 Range of M.O.s used for correlation:     1   888
 NBasis=   888 NAE=   222 NBE=   221 NFC=     0 NFV=     0
 NROrb=    888 NOA=   222 NOB=   221 NVA=   666 NVB=   667

 **** Warning!!: The largest alpha MO coefficient is  0.12747112D+02


 **** Warning!!: The largest beta MO coefficient is  0.12747112D+02

   1 Symmetry operations used in ECPInt.
 ECPInt:  NShTT=   73153 NPrTT=  279412 LenC2=   57340 LenP2D=  134491.
 LDataN:  DoStor=T MaxTD1=10 Len=  848
 Symmetrizing basis deriv contribution to polar:
 IMax=3 JMax=2 DiffMx= 0.00D+00
 G2DrvN: will do    68 centers at a time, making    1 passes.
 Calling FoFCou, ICntrl=  3107 FMM=T I1Cent=   0 AccDes= 0.00D+00.
 Defaulting to unpruned grid for atomic number  70.
 Defaulting to unpruned grid for atomic number  70.
 Defaulting to unpruned grid for atomic number  70.
 Defaulting to unpruned grid for atomic number  70.
 Defaulting to unpruned grid for atomic number  70.
 Defaulting to unpruned grid for atomic number  70.
 Defaulting to unpruned grid for atomic number  70.
 Defaulting to unpruned grid for atomic number  70.
 Defaulting to unpruned grid for atomic number  70.
 Defaulting to unpruned grid for atomic number  70.
 Defaulting to unpruned grid for atomic number  70.
 Defaulting to unpruned grid for atomic number  70.
 Defaulting to unpruned grid for atomic number  70.
 Defaulting to unpruned grid for atomic number  70.
 Defaulting to unpruned grid for atomic number  70.
 Defaulting to unpruned grid for atomic number  70.
 Defaulting to unpruned grid for atomic number  70.
 Defaulting to unpruned grid for atomic number  70.
 Defaulting to unpruned grid for atomic number  70.
 Defaulting to unpruned grid for atomic number  70.
 Defaulting to unpruned grid for atomic number  70.
 Defaulting to unpruned grid for atomic number  70.
 Defaulting to unpruned grid for atomic number  70.
 Defaulting to unpruned grid for atomic number  70.
 NEqPCM:  Using equilibrium solvation (IEInf=0, Eps=  10.1250, EpsInf=   2.0874)
 G2PCM: DoFxE=T DoFxN=T DoGrad=T DoDP/DQ/DG/TGxP=FFFF NFrqRd=   0 IEInf=0 SqF1=F DoCFld=F IF1Alg=4.
 End of G2Drv F.D. properties file   721 does not exist.
 End of G2Drv F.D. properties file   722 does not exist.
 End of G2Drv F.D. properties file   788 does not exist.
          IDoAtm=11111111111111111111111111111111111111111111111111
          IDoAtm=11111111111111111
 NEqPCM:  Using equilibrium solvation (IEInf=0, Eps=  10.1250, EpsInf=   2.0874)
          Differentiating once with respect to nuclear coordinates.
 Defaulting to unpruned grid for atomic number  70.
 CalDSu exits because no D1Ps are significant.
 Defaulting to unpruned grid for atomic number  70.
 Defaulting to unpruned grid for atomic number  70.
 Defaulting to unpruned grid for atomic number  70.
 Defaulting to unpruned grid for atomic number  70.
 Defaulting to unpruned grid for atomic number  70.
 Defaulting to unpruned grid for atomic number  70.
 Defaulting to unpruned grid for atomic number  70.
 Defaulting to unpruned grid for atomic number  70.
 Defaulting to unpruned grid for atomic number  70.
 Defaulting to unpruned grid for atomic number  70.
 Defaulting to unpruned grid for atomic number  70.
 Defaulting to unpruned grid for atomic number  70.
 Defaulting to unpruned grid for atomic number  70.
 Defaulting to unpruned grid for atomic number  70.
 Defaulting to unpruned grid for atomic number  70.
 Defaulting to unpruned grid for atomic number  70.
 Defaulting to unpruned grid for atomic number  70.
 Defaulting to unpruned grid for atomic number  70.
 Defaulting to unpruned grid for atomic number  70.
 Defaulting to unpruned grid for atomic number  70.
 Defaulting to unpruned grid for atomic number  70.
 Defaulting to unpruned grid for atomic number  70.
 Defaulting to unpruned grid for atomic number  70.
 Defaulting to unpruned grid for atomic number  70.
          There are   204 degrees of freedom in the 1st order CPHF.  IDoFFX=6 NUNeed=     0.
    201 vectors produced by pass  0 Test12= 2.95D-13 1.00D-09 XBig12= 3.54D-01 1.35D-01.
 AX will form    72 AO Fock derivatives at one time.
    198 vectors produced by pass  1 Test12= 2.95D-13 1.00D-09 XBig12= 8.98D-02 4.07D-02.
    198 vectors produced by pass  2 Test12= 2.95D-13 1.00D-09 XBig12= 2.58D-03 6.12D-03.
    198 vectors produced by pass  3 Test12= 2.95D-13 1.00D-09 XBig12= 5.29D-05 7.19D-04.
    198 vectors produced by pass  4 Test12= 2.95D-13 1.00D-09 XBig12= 8.71D-07 9.90D-05.
    198 vectors produced by pass  5 Test12= 2.95D-13 1.00D-09 XBig12= 8.84D-09 1.15D-05.
    194 vectors produced by pass  6 Test12= 2.95D-13 1.00D-09 XBig12= 7.51D-11 7.27D-07.
    123 vectors produced by pass  7 Test12= 2.95D-13 1.00D-09 XBig12= 5.96D-13 7.56D-08.
     42 vectors produced by pass  8 Test12= 2.95D-13 1.00D-09 XBig12= 6.55D-15 5.77D-09.
      1 vectors produced by pass  9 Test12= 2.95D-13 1.00D-09 XBig12= 1.22D-15 1.23D-09.
 InvSVY:  IOpt=1 It=  1 EMax= 1.78D-15
 Solved reduced A of dimension  1551 with   204 vectors.
 End of Minotr F.D. properties file   721 does not exist.
 End of Minotr F.D. properties file   722 does not exist.
 End of Minotr F.D. properties file   788 does not exist.

 **********************************************************************

            Population analysis using the SCF density.

 **********************************************************************

 Alpha  occ. eigenvalues --  -88.04007 -88.03197 -88.03152 -24.33099 -24.32898
 Alpha  occ. eigenvalues --  -24.32868 -24.32847 -24.32820 -24.32652 -24.32619
 Alpha  occ. eigenvalues --  -24.32471 -24.32460 -18.92485 -18.86205 -18.85182
 Alpha  occ. eigenvalues --  -18.82087 -18.81661 -18.81224 -18.81194 -18.81183
 Alpha  occ. eigenvalues --  -18.81023 -18.80979 -18.80559 -18.80284 -16.28713
 Alpha  occ. eigenvalues --  -14.28342 -14.21201 -14.16155 -14.15711 -10.92100
 Alpha  occ. eigenvalues --  -10.92055 -10.92036 -10.31795 -10.31475 -10.31154
 Alpha  occ. eigenvalues --  -10.24207 -10.20425 -10.20114 -10.19481 -10.19265
 Alpha  occ. eigenvalues --  -10.18841 -10.15269 -10.15232 -10.15088 -10.13125
 Alpha  occ. eigenvalues --  -10.12341 -10.09576 -10.07854 -10.07633 -10.07083
 Alpha  occ. eigenvalues --  -10.07068 -10.06983 -10.06919 -10.06520  -7.93735
 Alpha  occ. eigenvalues --   -7.92979  -7.92912  -6.13242  -6.13204  -6.13156
 Alpha  occ. eigenvalues --   -6.12474  -6.12457  -6.12404  -6.12392  -6.12386
 Alpha  occ. eigenvalues --   -6.12334  -5.00397  -5.00372  -5.00315  -5.00308
 Alpha  occ. eigenvalues --   -5.00295  -1.95929  -1.36569  -1.36348  -1.36079
 Alpha  occ. eigenvalues --   -1.26575  -1.26543  -1.26352  -1.26277  -1.26092
 Alpha  occ. eigenvalues --   -1.26082  -1.19075  -1.17897  -1.17377  -1.17205
 Alpha  occ. eigenvalues --   -1.16688  -1.13081  -1.11325  -1.04746  -1.04602
 Alpha  occ. eigenvalues --   -1.03805  -1.03644  -1.02935  -1.02686  -1.01393
 Alpha  occ. eigenvalues --   -1.00979  -1.00129  -0.99977  -0.98514  -0.97342
 Alpha  occ. eigenvalues --   -0.93789  -0.91932  -0.89596  -0.85332  -0.82282
 Alpha  occ. eigenvalues --   -0.80850  -0.79788  -0.79178  -0.78638  -0.78269
 Alpha  occ. eigenvalues --   -0.78172  -0.77974  -0.75981  -0.73265  -0.70733
 Alpha  occ. eigenvalues --   -0.70402  -0.70169  -0.68731  -0.68236  -0.67067
 Alpha  occ. eigenvalues --   -0.66613  -0.66510  -0.66435  -0.66319  -0.66129
 Alpha  occ. eigenvalues --   -0.66074  -0.65974  -0.64821  -0.63784  -0.62100
 Alpha  occ. eigenvalues --   -0.60544  -0.60130  -0.59309  -0.59038  -0.58873
 Alpha  occ. eigenvalues --   -0.58487  -0.57379  -0.56852  -0.55887  -0.55067
 Alpha  occ. eigenvalues --   -0.54799  -0.54749  -0.54575  -0.54428  -0.54314
 Alpha  occ. eigenvalues --   -0.54222  -0.53817  -0.53335  -0.53070  -0.52820
 Alpha  occ. eigenvalues --   -0.52548  -0.52450  -0.52151  -0.52018  -0.51859
 Alpha  occ. eigenvalues --   -0.51667  -0.51521  -0.51053  -0.50800  -0.50724
 Alpha  occ. eigenvalues --   -0.50635  -0.50365  -0.50179  -0.50015  -0.49904
 Alpha  occ. eigenvalues --   -0.49796  -0.49773  -0.49404  -0.49056  -0.48447
 Alpha  occ. eigenvalues --   -0.48133  -0.47956  -0.47736  -0.47722  -0.47515
 Alpha  occ. eigenvalues --   -0.46495  -0.46076  -0.45978  -0.45004  -0.44883
 Alpha  occ. eigenvalues --   -0.44102  -0.43976  -0.43590  -0.43207  -0.42944
 Alpha  occ. eigenvalues --   -0.42642  -0.42211  -0.42002  -0.41205  -0.41055
 Alpha  occ. eigenvalues --   -0.40953  -0.40867  -0.40140  -0.39919  -0.39722
 Alpha  occ. eigenvalues --   -0.39608  -0.39001  -0.38600  -0.37849  -0.37570
 Alpha  occ. eigenvalues --   -0.37042  -0.36941  -0.36881  -0.36758  -0.36721
 Alpha  occ. eigenvalues --   -0.35431  -0.35174  -0.34783  -0.33289  -0.32933
 Alpha  occ. eigenvalues --   -0.32733  -0.32427  -0.30732  -0.30670  -0.27534
 Alpha  occ. eigenvalues --   -0.27022  -0.27002  -0.26939  -0.26912  -0.26857
 Alpha  occ. eigenvalues --   -0.26829  -0.26739
 Alpha virt. eigenvalues --   -0.09404  -0.07096  -0.03303  -0.02938  -0.01924
 Alpha virt. eigenvalues --   -0.01660  -0.00441   0.00069   0.03303   0.04671
 Alpha virt. eigenvalues --    0.06021   0.07258   0.08269   0.08964   0.09288
 Alpha virt. eigenvalues --    0.09409   0.10681   0.10843   0.11148   0.11369
 Alpha virt. eigenvalues --    0.11650   0.11993   0.12027   0.12202   0.12520
 Alpha virt. eigenvalues --    0.12757   0.12853   0.13105   0.13492   0.13855
 Alpha virt. eigenvalues --    0.14108   0.14349   0.14520   0.14784   0.15699
 Alpha virt. eigenvalues --    0.15966   0.16300   0.16451   0.16649   0.16961
 Alpha virt. eigenvalues --    0.17221   0.17945   0.17977   0.18414   0.18942
 Alpha virt. eigenvalues --    0.19532   0.19766   0.20040   0.20589   0.20731
 Alpha virt. eigenvalues --    0.21062   0.21157   0.21796   0.21934   0.22488
 Alpha virt. eigenvalues --    0.23489   0.23753   0.24476   0.24970   0.25492
 Alpha virt. eigenvalues --    0.25691   0.25829   0.26335   0.26448   0.26608
 Alpha virt. eigenvalues --    0.27434   0.27636   0.28043   0.28218   0.28446
 Alpha virt. eigenvalues --    0.28643   0.28783   0.29121   0.29358   0.29649
 Alpha virt. eigenvalues --    0.30112   0.30712   0.31207   0.31812   0.32529
 Alpha virt. eigenvalues --    0.32942   0.33741   0.34907   0.35635   0.37393
 Alpha virt. eigenvalues --    0.37881   0.38312   0.38901   0.39252   0.39634
 Alpha virt. eigenvalues --    0.40143   0.41029   0.41802   0.41903   0.43439
 Alpha virt. eigenvalues --    0.43898   0.44276   0.44517   0.44777   0.44916
 Alpha virt. eigenvalues --    0.45222   0.45644   0.45926   0.46749   0.47536
 Alpha virt. eigenvalues --    0.47814   0.47916   0.48469   0.49003   0.49192
 Alpha virt. eigenvalues --    0.49439   0.49721   0.50103   0.50280   0.50695
 Alpha virt. eigenvalues --    0.50986   0.51131   0.51576   0.52300   0.52671
 Alpha virt. eigenvalues --    0.53263   0.53895   0.54122   0.55079   0.55279
 Alpha virt. eigenvalues --    0.55754   0.56419   0.57189   0.57774   0.57904
 Alpha virt. eigenvalues --    0.58372   0.58548   0.59193   0.59748   0.60123
 Alpha virt. eigenvalues --    0.60252   0.60652   0.61026   0.62092   0.62455
 Alpha virt. eigenvalues --    0.62681   0.63020   0.63603   0.64060   0.64512
 Alpha virt. eigenvalues --    0.64958   0.65180   0.65424   0.65899   0.65959
 Alpha virt. eigenvalues --    0.66720   0.67211   0.67355   0.67656   0.67981
 Alpha virt. eigenvalues --    0.68090   0.68677   0.68691   0.69159   0.69745
 Alpha virt. eigenvalues --    0.69765   0.70067   0.70109   0.70516   0.70861
 Alpha virt. eigenvalues --    0.71099   0.71392   0.71551   0.71943   0.72114
 Alpha virt. eigenvalues --    0.72767   0.72963   0.73329   0.73832   0.74122
 Alpha virt. eigenvalues --    0.74253   0.74643   0.75244   0.76079   0.76357
 Alpha virt. eigenvalues --    0.76885   0.77368   0.77678   0.78137   0.78664
 Alpha virt. eigenvalues --    0.78832   0.79161   0.79599   0.80278   0.81036
 Alpha virt. eigenvalues --    0.81497   0.82086   0.82464   0.83210   0.83739
 Alpha virt. eigenvalues --    0.84753   0.84923   0.86182   0.86385   0.86674
 Alpha virt. eigenvalues --    0.87460   0.87821   0.88460   0.88557   0.90152
 Alpha virt. eigenvalues --    0.90358   0.90836   0.91430   0.92334   0.92921
 Alpha virt. eigenvalues --    0.93159   0.93614   0.94586   0.94858   0.95842
 Alpha virt. eigenvalues --    0.95892   0.96469   0.96771   0.97828   0.97965
 Alpha virt. eigenvalues --    0.98900   0.98997   0.99924   1.00338   1.01048
 Alpha virt. eigenvalues --    1.01905   1.02063   1.02349   1.02607   1.03417
 Alpha virt. eigenvalues --    1.04067   1.04583   1.05400   1.05845   1.06471
 Alpha virt. eigenvalues --    1.06857   1.07427   1.07979   1.08306   1.09106
 Alpha virt. eigenvalues --    1.09887   1.09993   1.10554   1.10602   1.11089
 Alpha virt. eigenvalues --    1.11416   1.11907   1.11973   1.12529   1.13310
 Alpha virt. eigenvalues --    1.13535   1.14099   1.14735   1.15188   1.15797
 Alpha virt. eigenvalues --    1.16012   1.16278   1.16404   1.17142   1.17559
 Alpha virt. eigenvalues --    1.18044   1.18785   1.19304   1.19385   1.19647
 Alpha virt. eigenvalues --    1.20209   1.20601   1.20795   1.21192   1.21443
 Alpha virt. eigenvalues --    1.22297   1.22465   1.22935   1.23493   1.23978
 Alpha virt. eigenvalues --    1.24391   1.24830   1.25367   1.25579   1.26684
 Alpha virt. eigenvalues --    1.27089   1.27197   1.27553   1.28019   1.28586
 Alpha virt. eigenvalues --    1.28950   1.29431   1.30272   1.30836   1.31378
 Alpha virt. eigenvalues --    1.31462   1.32128   1.32597   1.33178   1.33549
 Alpha virt. eigenvalues --    1.34132   1.34312   1.34747   1.36005   1.36628
 Alpha virt. eigenvalues --    1.36899   1.37386   1.37639   1.38473   1.39046
 Alpha virt. eigenvalues --    1.39546   1.40928   1.41450   1.41945   1.42104
 Alpha virt. eigenvalues --    1.42530   1.43092   1.43431   1.43853   1.44067
 Alpha virt. eigenvalues --    1.44850   1.45281   1.45639   1.46362   1.47354
 Alpha virt. eigenvalues --    1.48153   1.49299   1.49776   1.50373   1.50748
 Alpha virt. eigenvalues --    1.50967   1.51480   1.52351   1.52866   1.54006
 Alpha virt. eigenvalues --    1.55229   1.55856   1.55989   1.56480   1.57198
 Alpha virt. eigenvalues --    1.58020   1.58422   1.58722   1.59192   1.59325
 Alpha virt. eigenvalues --    1.59692   1.60113   1.60520   1.60595   1.61142
 Alpha virt. eigenvalues --    1.61964   1.62653   1.63621   1.64392   1.64414
 Alpha virt. eigenvalues --    1.64995   1.65985   1.66686   1.66914   1.67632
 Alpha virt. eigenvalues --    1.68022   1.68479   1.68936   1.69261   1.70732
 Alpha virt. eigenvalues --    1.70783   1.71256   1.71389   1.72244   1.72710
 Alpha virt. eigenvalues --    1.73377   1.73571   1.73916   1.75018   1.75219
 Alpha virt. eigenvalues --    1.75965   1.76329   1.76748   1.77297   1.77641
 Alpha virt. eigenvalues --    1.79194   1.79975   1.80043   1.80778   1.81147
 Alpha virt. eigenvalues --    1.81828   1.83054   1.84079   1.84587   1.85367
 Alpha virt. eigenvalues --    1.85678   1.86424   1.87003   1.88130   1.88662
 Alpha virt. eigenvalues --    1.89081   1.89368   1.89607   1.89785   1.89925
 Alpha virt. eigenvalues --    1.90158   1.90347   1.90741   1.91042   1.91534
 Alpha virt. eigenvalues --    1.91780   1.92264   1.92679   1.93418   1.94028
 Alpha virt. eigenvalues --    1.94748   1.94867   1.95303   1.95573   1.95926
 Alpha virt. eigenvalues --    1.96602   1.97034   1.97775   1.98333   1.98871
 Alpha virt. eigenvalues --    1.99408   1.99981   2.00498   2.01167   2.01487
 Alpha virt. eigenvalues --    2.01615   2.01954   2.02255   2.02747   2.02862
 Alpha virt. eigenvalues --    2.03351   2.03911   2.04571   2.05540   2.05783
 Alpha virt. eigenvalues --    2.06303   2.06807   2.07334   2.08017   2.08529
 Alpha virt. eigenvalues --    2.09056   2.09633   2.10398   2.11036   2.11509
 Alpha virt. eigenvalues --    2.12311   2.12419   2.13567   2.13903   2.13992
 Alpha virt. eigenvalues --    2.14933   2.15770   2.16081   2.16593   2.17904
 Alpha virt. eigenvalues --    2.18405   2.18828   2.19875   2.20395   2.21315
 Alpha virt. eigenvalues --    2.21675   2.21849   2.22604   2.23326   2.23532
 Alpha virt. eigenvalues --    2.24202   2.25269   2.25880   2.26859   2.28360
 Alpha virt. eigenvalues --    2.28923   2.29557   2.29933   2.30869   2.32765
 Alpha virt. eigenvalues --    2.33664   2.33793   2.35800   2.36245   2.37051
 Alpha virt. eigenvalues --    2.37284   2.38954   2.40524   2.41363   2.42724
 Alpha virt. eigenvalues --    2.43344   2.45263   2.46184   2.48801   2.49816
 Alpha virt. eigenvalues --    2.50440   2.55947   2.56372   2.56502   2.56896
 Alpha virt. eigenvalues --    2.57147   2.57544   2.58128   2.59407   2.61255
 Alpha virt. eigenvalues --    2.61384   2.61729   2.62158   2.62510   2.63202
 Alpha virt. eigenvalues --    2.63498   2.63707   2.63844   2.64224   2.64795
 Alpha virt. eigenvalues --    2.65196   2.65624   2.65972   2.66202   2.66819
 Alpha virt. eigenvalues --    2.67524   2.68353   2.69108   2.69438   2.69817
 Alpha virt. eigenvalues --    2.70539   2.70627   2.70993   2.71492   2.72768
 Alpha virt. eigenvalues --    2.73312   2.73646   2.73820   2.74475   2.74859
 Alpha virt. eigenvalues --    2.75231   2.76274   2.76422   2.76589   2.77348
 Alpha virt. eigenvalues --    2.77710   2.78220   2.78550   2.79444   2.79985
 Alpha virt. eigenvalues --    2.80716   2.82006   2.82338   2.82466   2.82765
 Alpha virt. eigenvalues --    2.83192   2.83699   2.85691   2.86488   2.87744
 Alpha virt. eigenvalues --    2.88531   2.90359   2.90719   2.92650   2.93204
 Alpha virt. eigenvalues --    2.94389   2.95892   2.96553   2.97173   2.97231
 Alpha virt. eigenvalues --    2.98089   2.98168   2.98271   2.98910   2.99214
 Alpha virt. eigenvalues --    2.99485   2.99527   2.99598   2.99778   3.00682
 Alpha virt. eigenvalues --    3.01278   3.02161   3.03439   3.03621   3.03885
 Alpha virt. eigenvalues --    3.04019   3.04055   3.04084   3.04131   3.04363
 Alpha virt. eigenvalues --    3.04404   3.04436   3.04494   3.04955   3.05000
 Alpha virt. eigenvalues --    3.05079   3.05245   3.05372   3.05888   3.06264
 Alpha virt. eigenvalues --    3.06550   3.06922   3.07642   3.08165   3.09013
 Alpha virt. eigenvalues --    3.11337   3.12316   3.13565   3.15764   3.15816
 Alpha virt. eigenvalues --    3.15952   3.16129   3.16174   3.16304   3.17886
 Alpha virt. eigenvalues --    3.21230   3.23357   3.25690   3.27017   3.27475
 Alpha virt. eigenvalues --    3.28087   3.31292   3.32638   3.35197   3.37968
 Alpha virt. eigenvalues --    3.38510   3.39255   3.39513   3.39551   3.40413
 Alpha virt. eigenvalues --    3.40927   3.41116   3.41474   3.42343   3.42878
 Alpha virt. eigenvalues --    3.45505   3.50350   3.50829   3.51467   3.52168
 Alpha virt. eigenvalues --    3.52196   3.52441   3.52756   3.52885   3.53978
 Alpha virt. eigenvalues --    3.60938   3.63185   3.64976   3.66732   3.66809
 Alpha virt. eigenvalues --    3.67389   3.67659   3.82486   3.82556   3.82659
 Alpha virt. eigenvalues --    3.83197   3.83355   3.83978   6.46291   6.48894
 Alpha virt. eigenvalues --    6.52198   6.52694   6.56526   7.90951   7.92004
 Alpha virt. eigenvalues --    7.92592   7.96780   7.98505   8.02216   8.05373
 Alpha virt. eigenvalues --    9.66818  13.95498  13.98185  14.01174  24.89785
 Alpha virt. eigenvalues --   84.96350  91.99268  92.07019  92.14692 314.03350
 Alpha virt. eigenvalues --  713.78534
  Beta  occ. eigenvalues --  -88.04007 -88.03197 -88.03152 -24.33099 -24.32898
  Beta  occ. eigenvalues --  -24.32868 -24.32847 -24.32820 -24.32652 -24.32619
  Beta  occ. eigenvalues --  -24.32471 -24.32460 -18.92250 -18.86075 -18.85126
  Beta  occ. eigenvalues --  -18.82084 -18.81660 -18.81220 -18.81193 -18.81182
  Beta  occ. eigenvalues --  -18.81022 -18.80978 -18.80559 -18.80284 -16.28711
  Beta  occ. eigenvalues --  -14.28011 -14.21152 -14.16155 -14.15709 -10.92098
  Beta  occ. eigenvalues --  -10.92053 -10.92034 -10.31795 -10.31475 -10.31154
  Beta  occ. eigenvalues --  -10.24202 -10.20124 -10.20049 -10.19502 -10.19247
  Beta  occ. eigenvalues --  -10.18881 -10.15228 -10.15227 -10.15083 -10.13073
  Beta  occ. eigenvalues --  -10.12311 -10.09575 -10.07854 -10.07633 -10.07082
  Beta  occ. eigenvalues --  -10.07068 -10.06983 -10.06919 -10.06517  -7.93735
  Beta  occ. eigenvalues --   -7.92979  -7.92912  -6.13242  -6.13204  -6.13156
  Beta  occ. eigenvalues --   -6.12474  -6.12457  -6.12404  -6.12392  -6.12386
  Beta  occ. eigenvalues --   -6.12334  -5.00395  -5.00369  -5.00313  -5.00302
  Beta  occ. eigenvalues --   -5.00292  -1.95929  -1.36569  -1.36348  -1.36079
  Beta  occ. eigenvalues --   -1.26575  -1.26543  -1.26352  -1.26277  -1.26092
  Beta  occ. eigenvalues --   -1.26082  -1.18473  -1.17886  -1.17376  -1.17204
  Beta  occ. eigenvalues --   -1.16031  -1.12818  -1.11164  -1.04742  -1.04602
  Beta  occ. eigenvalues --   -1.03803  -1.03641  -1.02934  -1.02684  -1.01226
  Beta  occ. eigenvalues --   -1.00970  -1.00128  -0.99976  -0.98503  -0.97036
  Beta  occ. eigenvalues --   -0.93499  -0.91810  -0.89263  -0.84796  -0.82029
  Beta  occ. eigenvalues --   -0.80766  -0.79779  -0.78904  -0.78602  -0.78218
  Beta  occ. eigenvalues --   -0.77993  -0.77876  -0.75713  -0.72770  -0.70730
  Beta  occ. eigenvalues --   -0.70400  -0.70167  -0.68384  -0.67917  -0.66850
  Beta  occ. eigenvalues --   -0.66612  -0.66510  -0.66425  -0.66313  -0.66129
  Beta  occ. eigenvalues --   -0.66073  -0.65658  -0.64610  -0.63380  -0.61535
  Beta  occ. eigenvalues --   -0.60442  -0.59905  -0.59274  -0.59033  -0.58749
  Beta  occ. eigenvalues --   -0.58207  -0.57061  -0.56546  -0.55378  -0.55048
  Beta  occ. eigenvalues --   -0.54742  -0.54687  -0.54426  -0.54327  -0.54223
  Beta  occ. eigenvalues --   -0.54136  -0.53717  -0.53047  -0.52953  -0.52700
  Beta  occ. eigenvalues --   -0.52469  -0.52319  -0.52094  -0.51988  -0.51855
  Beta  occ. eigenvalues --   -0.51633  -0.51424  -0.51016  -0.50728  -0.50599
  Beta  occ. eigenvalues --   -0.50549  -0.50348  -0.50117  -0.49995  -0.49899
  Beta  occ. eigenvalues --   -0.49774  -0.49766  -0.49246  -0.48903  -0.48140
  Beta  occ. eigenvalues --   -0.48100  -0.47947  -0.47736  -0.47578  -0.47131
  Beta  occ. eigenvalues --   -0.46468  -0.45995  -0.45788  -0.44873  -0.44763
  Beta  occ. eigenvalues --   -0.43958  -0.43911  -0.43397  -0.42911  -0.42786
  Beta  occ. eigenvalues --   -0.42523  -0.42115  -0.41943  -0.41052  -0.41007
  Beta  occ. eigenvalues --   -0.40817  -0.39937  -0.39790  -0.39663  -0.39596
  Beta  occ. eigenvalues --   -0.39358  -0.38625  -0.38234  -0.37531  -0.37306
  Beta  occ. eigenvalues --   -0.37000  -0.36929  -0.36858  -0.36745  -0.36454
  Beta  occ. eigenvalues --   -0.35403  -0.35168  -0.34691  -0.33259  -0.32931
  Beta  occ. eigenvalues --   -0.32721  -0.31906  -0.30705  -0.30633  -0.27023
  Beta  occ. eigenvalues --   -0.27000  -0.26949  -0.26937  -0.26852  -0.26827
  Beta  occ. eigenvalues --   -0.26740
  Beta virt. eigenvalues --   -0.15514  -0.08008  -0.06192  -0.03227  -0.02943
  Beta virt. eigenvalues --   -0.01667  -0.00878   0.00035   0.00626   0.03455
  Beta virt. eigenvalues --    0.04775   0.06027   0.07418   0.08414   0.09186
  Beta virt. eigenvalues --    0.09298   0.09795   0.10766   0.10933   0.11145
  Beta virt. eigenvalues --    0.11382   0.11669   0.12013   0.12081   0.12304
  Beta virt. eigenvalues --    0.12525   0.12773   0.12984   0.13144   0.13508
  Beta virt. eigenvalues --    0.13902   0.14137   0.14396   0.14579   0.14820
  Beta virt. eigenvalues --    0.15778   0.15993   0.16337   0.16484   0.16667
  Beta virt. eigenvalues --    0.16988   0.17228   0.17979   0.17990   0.18441
  Beta virt. eigenvalues --    0.18972   0.19561   0.19834   0.20046   0.20634
  Beta virt. eigenvalues --    0.20806   0.21118   0.21225   0.21818   0.21950
  Beta virt. eigenvalues --    0.22559   0.23514   0.23782   0.24605   0.25008
  Beta virt. eigenvalues --    0.25541   0.25751   0.25867   0.26346   0.26485
  Beta virt. eigenvalues --    0.26647   0.27442   0.27694   0.28066   0.28232
  Beta virt. eigenvalues --    0.28474   0.28690   0.28782   0.29145   0.29367
  Beta virt. eigenvalues --    0.29693   0.30139   0.30720   0.31362   0.31844
  Beta virt. eigenvalues --    0.32665   0.33058   0.33786   0.34942   0.35779
  Beta virt. eigenvalues --    0.37406   0.37911   0.38384   0.38968   0.39289
  Beta virt. eigenvalues --    0.39680   0.40191   0.41171   0.41870   0.42034
  Beta virt. eigenvalues --    0.43535   0.43933   0.44339   0.44513   0.44814
  Beta virt. eigenvalues --    0.44942   0.45267   0.45728   0.45979   0.46865
  Beta virt. eigenvalues --    0.47676   0.47876   0.48019   0.48520   0.49031
  Beta virt. eigenvalues --    0.49251   0.49466   0.49789   0.50108   0.50325
  Beta virt. eigenvalues --    0.50790   0.50999   0.51151   0.51650   0.52325
  Beta virt. eigenvalues --    0.52787   0.53337   0.53965   0.54214   0.55196
  Beta virt. eigenvalues --    0.55349   0.55797   0.56476   0.57274   0.57835
  Beta virt. eigenvalues --    0.58038   0.58422   0.58636   0.59244   0.59831
  Beta virt. eigenvalues --    0.60150   0.60282   0.60710   0.61065   0.62147
  Beta virt. eigenvalues --    0.62628   0.62738   0.63040   0.63743   0.64138
  Beta virt. eigenvalues --    0.64523   0.65028   0.65170   0.65426   0.65933
  Beta virt. eigenvalues --    0.65990   0.66837   0.67151   0.67356   0.67657
  Beta virt. eigenvalues --    0.67990   0.68042   0.68664   0.68723   0.69205
  Beta virt. eigenvalues --    0.69714   0.69873   0.70050   0.70124   0.70553
  Beta virt. eigenvalues --    0.70923   0.71150   0.71402   0.71573   0.72003
  Beta virt. eigenvalues --    0.72130   0.72809   0.72972   0.73422   0.73872
  Beta virt. eigenvalues --    0.74089   0.74260   0.74649   0.75256   0.76088
  Beta virt. eigenvalues --    0.76374   0.76877   0.77374   0.77735   0.78158
  Beta virt. eigenvalues --    0.78699   0.78861   0.79191   0.79637   0.80348
  Beta virt. eigenvalues --    0.81039   0.81516   0.82130   0.82470   0.83188
  Beta virt. eigenvalues --    0.83751   0.84828   0.84963   0.86224   0.86442
  Beta virt. eigenvalues --    0.86735   0.87613   0.87856   0.88574   0.88606
  Beta virt. eigenvalues --    0.90194   0.90515   0.90944   0.91475   0.92359
  Beta virt. eigenvalues --    0.92983   0.93206   0.93713   0.94736   0.94901
  Beta virt. eigenvalues --    0.95860   0.95907   0.96483   0.96790   0.97921
  Beta virt. eigenvalues --    0.97983   0.98920   0.99052   0.99959   1.00369
  Beta virt. eigenvalues --    1.01092   1.01956   1.02137   1.02386   1.02630
  Beta virt. eigenvalues --    1.03495   1.04118   1.04990   1.05482   1.05915
  Beta virt. eigenvalues --    1.06466   1.06944   1.07505   1.08112   1.08499
  Beta virt. eigenvalues --    1.09173   1.09896   1.10066   1.10581   1.10640
  Beta virt. eigenvalues --    1.11119   1.11514   1.11958   1.12017   1.12621
  Beta virt. eigenvalues --    1.13350   1.13578   1.14104   1.14780   1.15206
  Beta virt. eigenvalues --    1.15864   1.16045   1.16432   1.16449   1.17200
  Beta virt. eigenvalues --    1.17598   1.18098   1.18849   1.19328   1.19424
  Beta virt. eigenvalues --    1.19709   1.20239   1.20605   1.20850   1.21287
  Beta virt. eigenvalues --    1.21474   1.22321   1.22545   1.22989   1.23553
  Beta virt. eigenvalues --    1.24041   1.24442   1.24897   1.25390   1.25643
  Beta virt. eigenvalues --    1.26748   1.27146   1.27304   1.27590   1.28046
  Beta virt. eigenvalues --    1.28618   1.29012   1.29507   1.30316   1.30862
  Beta virt. eigenvalues --    1.31412   1.31529   1.32190   1.32663   1.33251
  Beta virt. eigenvalues --    1.33609   1.34214   1.34338   1.34768   1.36057
  Beta virt. eigenvalues --    1.36663   1.36966   1.37452   1.37673   1.38559
  Beta virt. eigenvalues --    1.39081   1.39577   1.41005   1.41493   1.42004
  Beta virt. eigenvalues --    1.42148   1.42719   1.43156   1.43465   1.43913
  Beta virt. eigenvalues --    1.44129   1.44877   1.45361   1.45765   1.46369
  Beta virt. eigenvalues --    1.47400   1.48160   1.49332   1.49877   1.50406
  Beta virt. eigenvalues --    1.50787   1.51041   1.51660   1.52397   1.52874
  Beta virt. eigenvalues --    1.54128   1.55279   1.55866   1.56174   1.56558
  Beta virt. eigenvalues --    1.57216   1.58003   1.58441   1.58763   1.59211
  Beta virt. eigenvalues --    1.59342   1.59658   1.60148   1.60524   1.60590
  Beta virt. eigenvalues --    1.61184   1.61958   1.62790   1.63618   1.64397
  Beta virt. eigenvalues --    1.64426   1.65129   1.66003   1.66670   1.66859
  Beta virt. eigenvalues --    1.67681   1.67961   1.68438   1.68931   1.69300
  Beta virt. eigenvalues --    1.70718   1.70813   1.71357   1.71385   1.72213
  Beta virt. eigenvalues --    1.72742   1.73399   1.73617   1.73950   1.75097
  Beta virt. eigenvalues --    1.75235   1.75996   1.76359   1.76750   1.77256
  Beta virt. eigenvalues --    1.77687   1.79354   1.79991   1.80315   1.80798
  Beta virt. eigenvalues --    1.81328   1.81812   1.83192   1.84103   1.84976
  Beta virt. eigenvalues --    1.85514   1.85776   1.86635   1.87032   1.88204
  Beta virt. eigenvalues --    1.88668   1.89086   1.89366   1.89610   1.89774
  Beta virt. eigenvalues --    1.89937   1.90138   1.90389   1.90779   1.91066
  Beta virt. eigenvalues --    1.91558   1.91804   1.92347   1.92690   1.93483
  Beta virt. eigenvalues --    1.94054   1.94744   1.94920   1.95352   1.95608
  Beta virt. eigenvalues --    1.95954   1.96629   1.97054   1.97775   1.98322
  Beta virt. eigenvalues --    1.98893   1.99416   1.99971   2.00467   2.01135
  Beta virt. eigenvalues --    2.01487   2.01633   2.01978   2.02297   2.02745
  Beta virt. eigenvalues --    2.03002   2.03388   2.03881   2.04670   2.05519
  Beta virt. eigenvalues --    2.05850   2.06254   2.07012   2.07366   2.08060
  Beta virt. eigenvalues --    2.08533   2.09648   2.09880   2.10547   2.11031
  Beta virt. eigenvalues --    2.11642   2.12360   2.12455   2.13562   2.13956
  Beta virt. eigenvalues --    2.14228   2.14959   2.15820   2.16122   2.16593
  Beta virt. eigenvalues --    2.17927   2.18396   2.18831   2.19929   2.20449
  Beta virt. eigenvalues --    2.21359   2.21707   2.21853   2.22612   2.23376
  Beta virt. eigenvalues --    2.23497   2.24253   2.25322   2.26006   2.27096
  Beta virt. eigenvalues --    2.28363   2.29034   2.29512   2.29943   2.31059
  Beta virt. eigenvalues --    2.32606   2.33808   2.33997   2.35908   2.36241
  Beta virt. eigenvalues --    2.37077   2.37186   2.38896   2.40062   2.41191
  Beta virt. eigenvalues --    2.42736   2.43209   2.45279   2.46137   2.48831
  Beta virt. eigenvalues --    2.49730   2.50449   2.55995   2.56478   2.56504
  Beta virt. eigenvalues --    2.56894   2.57139   2.57572   2.58195   2.59368
  Beta virt. eigenvalues --    2.61249   2.61351   2.61718   2.62121   2.62496
  Beta virt. eigenvalues --    2.63199   2.63445   2.63576   2.63829   2.64208
  Beta virt. eigenvalues --    2.64726   2.65177   2.65593   2.65847   2.66184
  Beta virt. eigenvalues --    2.66866   2.67591   2.68424   2.69112   2.69528
  Beta virt. eigenvalues --    2.69817   2.70533   2.70633   2.70992   2.71485
  Beta virt. eigenvalues --    2.72788   2.73318   2.73685   2.73764   2.74481
  Beta virt. eigenvalues --    2.74852   2.75151   2.76264   2.76398   2.76578
  Beta virt. eigenvalues --    2.77351   2.77670   2.78304   2.78623   2.79412
  Beta virt. eigenvalues --    2.79970   2.80797   2.82007   2.82338   2.82490
  Beta virt. eigenvalues --    2.82720   2.83190   2.83697   2.85552   2.86429
  Beta virt. eigenvalues --    2.87712   2.88399   2.90251   2.90567   2.92403
  Beta virt. eigenvalues --    2.93140   2.94227   2.95883   2.96538   2.97166
  Beta virt. eigenvalues --    2.97217   2.98065   2.98100   2.98263   2.98875
  Beta virt. eigenvalues --    2.99213   2.99338   2.99508   2.99599   2.99783
  Beta virt. eigenvalues --    3.00614   3.01255   3.02200   3.03411   3.03621
  Beta virt. eigenvalues --    3.03876   3.04015   3.04047   3.04081   3.04094
  Beta virt. eigenvalues --    3.04363   3.04394   3.04434   3.04491   3.04950
  Beta virt. eigenvalues --    3.05002   3.05080   3.05234   3.05365   3.05886
  Beta virt. eigenvalues --    3.06267   3.06587   3.06900   3.07672   3.08161
  Beta virt. eigenvalues --    3.08979   3.10901   3.12262   3.13508   3.15759
  Beta virt. eigenvalues --    3.15816   3.15951   3.16127   3.16173   3.16304
  Beta virt. eigenvalues --    3.17829   3.21154   3.23300   3.25689   3.26924
  Beta virt. eigenvalues --    3.27465   3.27826   3.30491   3.32552   3.35101
  Beta virt. eigenvalues --    3.37745   3.38498   3.39253   3.39513   3.39550
  Beta virt. eigenvalues --    3.40400   3.40924   3.41114   3.41465   3.42330
  Beta virt. eigenvalues --    3.42702   3.45086   3.49876   3.50472   3.51443
  Beta virt. eigenvalues --    3.52168   3.52196   3.52434   3.52751   3.52878
  Beta virt. eigenvalues --    3.53965   3.60928   3.63125   3.64902   3.66722
  Beta virt. eigenvalues --    3.66808   3.67382   3.67652   3.82486   3.82556
  Beta virt. eigenvalues --    3.82659   3.83197   3.83355   3.83978   6.46290
  Beta virt. eigenvalues --    6.48894   6.52197   6.52692   6.56524   7.90951
  Beta virt. eigenvalues --    7.92003   7.92592   7.96779   7.98505   8.02217
  Beta virt. eigenvalues --    8.05374   9.66819  13.95498  13.98185  14.01173
  Beta virt. eigenvalues --   24.89772  84.96346  91.99265  92.07016  92.14689
  Beta virt. eigenvalues --  314.03350 713.78523
          Condensed to atoms (all electrons):
          Atomic-Atomic Spin Densities.
 Mulliken charges and spin densities:
               1          2
     1  C    0.017671   0.454032
     2  C   -0.007832  -0.030209
     3  C    0.107704  -0.037372
     4  O   -0.194360   0.024811
     5  O   -0.156274   0.066959
     6  O   -0.468233   0.000409
     7  O   -0.473275   0.001121
     8  O   -0.474524   0.000254
     9  S    0.844618  -0.000015
    10  S    0.846601  -0.000168
    11  S    0.855478   0.000447
    12  O   -0.479344   0.000087
    13  O   -0.456110   0.000060
    14  O   -0.481689   0.000348
    15  O   -0.447496   0.000062
    16  O   -0.488151   0.000187
    17  O   -0.462143   0.001038
    18  C    0.406402   0.000026
    19  C    0.400301   0.000055
    20  C    0.401110  -0.000017
    21  F   -0.141327  -0.000001
    22  F   -0.124759   0.000009
    23  F   -0.136223   0.000005
    24  F   -0.140174   0.000000
    25  F   -0.139314   0.000002
    26  F   -0.138156   0.000002
    27  F   -0.123389  -0.000005
    28  F   -0.137421  -0.000000
    29  F   -0.139226   0.000000
    30  C    0.295854   0.008690
    31  C   -0.165282  -0.008655
    32  C   -0.144313   0.003854
    33  C   -0.121525   0.006446
    34  C    0.087763   0.068139
    35  C    0.071109   0.056751
    36  C    0.090507   0.057096
    37  H    0.051920  -0.004763
    38  H    0.094943  -0.004800
    39  H    0.079409  -0.004064
    40  N    0.154247   0.002259
    41  N    0.145562  -0.000190
    42  N   -0.121727   0.208334
    43  N    0.004818   0.039708
    44  C    0.146027  -0.040288
    45  H    0.082903   0.033848
    46  H    0.124950   0.002463
    47  C   -0.063295   0.003208
    48  C    0.019483  -0.000220
    49  C    0.041128  -0.000547
    50  C    0.007420  -0.000113
    51  H    0.025820   0.000172
    52  C   -0.005360   0.000253
    53  H    0.002188  -0.000144
    54  C    0.031624  -0.000366
    55  H    0.008997   0.000029
    56  H    0.019054  -0.000006
    57  H    0.022872   0.000024
    58  Yb   0.615702   0.000350
    59  O   -0.258413   0.090630
    60  C    0.105828  -0.000134
    61  H    0.036819  -0.000215
    62  H    0.069897   0.000012
    63  H    0.080296   0.000132
    64  C    0.176481   0.002390
    65  H    0.077067  -0.000566
    66  H   -0.025419  -0.001569
    67  H    0.064180  -0.000271
 Sum of Mulliken charges =  -0.00000   1.00000
 Mulliken charges and spin densities with hydrogens summed into heavy atoms:
               1          2
     1  C    0.017671   0.454032
     2  C   -0.007832  -0.030209
     3  C    0.107704  -0.037372
     4  O   -0.194360   0.024811
     5  O   -0.156274   0.066959
     6  O   -0.468233   0.000409
     7  O   -0.473275   0.001121
     8  O   -0.474524   0.000254
     9  S    0.844618  -0.000015
    10  S    0.846601  -0.000168
    11  S    0.855478   0.000447
    12  O   -0.479344   0.000087
    13  O   -0.456110   0.000060
    14  O   -0.481689   0.000348
    15  O   -0.447496   0.000062
    16  O   -0.488151   0.000187
    17  O   -0.462143   0.001038
    18  C    0.406402   0.000026
    19  C    0.400301   0.000055
    20  C    0.401110  -0.000017
    21  F   -0.141327  -0.000001
    22  F   -0.124759   0.000009
    23  F   -0.136223   0.000005
    24  F   -0.140174   0.000000
    25  F   -0.139314   0.000002
    26  F   -0.138156   0.000002
    27  F   -0.123389  -0.000005
    28  F   -0.137421  -0.000000
    29  F   -0.139226   0.000000
    30  C    0.420803   0.011153
    31  C   -0.165282  -0.008655
    32  C   -0.144313   0.003854
    33  C   -0.121525   0.006446
    34  C    0.139683   0.063376
    35  C    0.166053   0.051951
    36  C    0.169917   0.053031
    40  N    0.154247   0.002259
    41  N    0.145562  -0.000190
    42  N   -0.121727   0.208334
    43  N    0.004818   0.039708
    44  C    0.228931  -0.006441
    47  C   -0.063295   0.003208
    48  C    0.045302  -0.000048
    49  C    0.043316  -0.000691
    50  C    0.016417  -0.000085
    52  C    0.013694   0.000247
    54  C    0.054497  -0.000342
    58  Yb   0.615702   0.000350
    59  O   -0.258413   0.090630
    60  C    0.292840  -0.000206
    64  C    0.292310  -0.000016
 APT charges:
               1
     1  C   -0.196557
     2  C   -0.310403
     3  C   -0.222335
     4  O   -0.293316
     5  O   -0.370883
     6  O   -0.721568
     7  O   -0.387659
     8  O   -0.755157
     9  S   -0.100628
    10  S    0.125155
    11  S    0.199544
    12  O   -0.559826
    13  O    0.837789
    14  O   -0.486637
    15  O    0.218642
    16  O   -0.646823
    17  O   -0.024609
    18  C   -0.643234
    19  C   -0.749764
    20  C   -0.552828
    21  F    0.275815
    22  F    0.101243
    23  F    0.564163
    24  F   -0.016489
    25  F    0.447149
    26  F    0.684999
    27  F   -0.413598
    28  F    0.664263
    29  F    0.319283
    30  C   -0.228293
    31  C   -1.381299
    32  C   -3.204524
    33  C   -1.365066
    34  C   -0.589637
    35  C   -0.696330
    36  C   -0.239090
    37  H    0.032589
    38  H    1.246839
    39  H    0.731242
    40  N    4.427300
    41  N    1.643002
    42  N   -0.134253
    43  N    0.128201
    44  C   -0.235680
    45  H    0.208274
    46  H    0.768093
    47  C   -0.479510
    48  C   -0.278404
    49  C   -0.665792
    50  C   -0.403217
    51  H   -0.171611
    52  C   -0.527507
    53  H    0.695306
    54  C   -0.536149
    55  H    0.310277
    56  H    1.153566
    57  H    1.008373
    58  Yb   0.607304
    59  O   -0.160949
    60  C   -0.484861
    61  H    0.304022
    62  H    0.547009
    63  H    0.297057
    64  C   -0.389123
    65  H    0.251934
    66  H    0.438051
    67  H    0.387125
 Sum of APT charges =  -0.00000
 APT charges with hydrogens summed into heavy atoms:
               1
     1  C   -0.196557
     2  C   -0.310403
     3  C   -0.222335
     4  O   -0.293316
     5  O   -0.370883
     6  O   -0.721568
     7  O   -0.387659
     8  O   -0.755157
     9  S   -0.100628
    10  S    0.125155
    11  S    0.199544
    12  O   -0.559826
    13  O    0.837789
    14  O   -0.486637
    15  O    0.218642
    16  O   -0.646823
    17  O   -0.024609
    18  C   -0.643234
    19  C   -0.749764
    20  C   -0.552828
    21  F    0.275815
    22  F    0.101243
    23  F    0.564163
    24  F   -0.016489
    25  F    0.447149
    26  F    0.684999
    27  F   -0.413598
    28  F    0.664263
    29  F    0.319283
    30  C    0.539800
    31  C   -1.381299
    32  C   -3.204524
    33  C   -1.365066
    34  C   -0.557048
    35  C    0.550509
    36  C    0.492152
    40  N    4.427300
    41  N    1.643002
    42  N   -0.134253
    43  N    0.128201
    44  C   -0.027406
    47  C   -0.479510
    48  C   -0.450015
    49  C    0.029514
    50  C   -0.092941
    52  C    0.626059
    54  C    0.472224
    58  Yb   0.607304
    59  O   -0.160949
    60  C    0.663226
    64  C    0.687987
 Electronic spatial extent (au):  <R**2>=          31192.8334
 Charge=             -0.0000 electrons
 Dipole moment (field-independent basis, Debye):
    X=             24.0699    Y=            -10.2007    Z=              4.9013  Tot=             26.5977
 Quadrupole moment (field-independent basis, Debye-Ang):
   XX=           -305.6382   YY=           -339.0757   ZZ=           -346.9213
   XY=             -4.0298   XZ=              9.2822   YZ=            -16.4709
 Traceless Quadrupole moment (field-independent basis, Debye-Ang):
   XX=             24.9069   YY=             -8.5307   ZZ=            -16.3762
   XY=             -4.0298   XZ=              9.2822   YZ=            -16.4709
 Octapole moment (field-independent basis, Debye-Ang**2):
  XXX=           -287.0675  YYY=           -110.8025  ZZZ=            111.7804  XYY=             67.7459
  XXY=             43.0923  XXZ=            230.9573  XZZ=            -17.5825  YZZ=             40.1930
  YYZ=             89.2676  XYZ=            -44.3966
 Hexadecapole moment (field-independent basis, Debye-Ang**3):
 XXXX=         -22018.8949 YYYY=         -11870.7452 ZZZZ=          -6377.4569 XXXY=            406.8167
 XXXZ=            988.0567 YYYX=            522.7814 YYYZ=           -291.8001 ZZZX=            196.2632
 ZZZY=           -350.4126 XXYY=          -5292.2385 XXZZ=          -4535.0149 YYZZ=          -2985.9009
 XXYZ=           -352.9290 YYXZ=            318.2625 ZZXY=            -17.1821
 N-N= 1.083376393566D+04 E-N=-3.408811913033D+04  KE= 4.772825266633D+03
  Exact polarizability:   0.000   0.000   0.000   0.000   0.000   0.000
 Approx polarizability: 507.949 -32.902 465.004  46.607   4.396 462.291
                          Isotropic Fermi Contact Couplings
        Atom                 a.u.       MegaHertz       Gauss      10(-4) cm-1
     1  C(13)              0.11152     125.37062      44.73536      41.81914
     2  C(13)             -0.00902     -10.14242      -3.61907      -3.38315
     3  C(13)             -0.01698     -19.09360      -6.81307      -6.36894
     4  O(17)              0.00603      -3.65438      -1.30397      -1.21897
     5  O(17)              0.01075      -6.51481      -2.32465      -2.17311
     6  O(17)              0.00022      -0.13615      -0.04858      -0.04542
     7  O(17)              0.00079      -0.47808      -0.17059      -0.15947
     8  O(17)              0.00033      -0.19936      -0.07114      -0.06650
     9  S(33)             -0.00003      -0.01127      -0.00402      -0.00376
    10  S(33)             -0.00002      -0.00794      -0.00283      -0.00265
    11  S(33)              0.00000       0.00076       0.00027       0.00025
    12  O(17)              0.00010      -0.06198      -0.02211      -0.02067
    13  O(17)             -0.00000       0.00134       0.00048       0.00045
    14  O(17)              0.00021      -0.12844      -0.04583      -0.04284
    15  O(17)             -0.00003       0.01797       0.00641       0.00599
    16  O(17)              0.00055      -0.33094      -0.11809      -0.11039
    17  O(17)              0.00294      -1.78091      -0.63547      -0.59405
    18  C(13)              0.00002       0.01908       0.00681       0.00636
    19  C(13)              0.00011       0.12623       0.04504       0.04211
    20  C(13)             -0.00001      -0.01401      -0.00500      -0.00467
    21  F(19)             -0.00002      -0.07660      -0.02733      -0.02555
    22  F(19)             -0.00001      -0.03196      -0.01140      -0.01066
    23  F(19)              0.00002       0.07069       0.02522       0.02358
    24  F(19)             -0.00000      -0.01444      -0.00515      -0.00482
    25  F(19)             -0.00000      -0.01639      -0.00585      -0.00547
    26  F(19)             -0.00000      -0.01670      -0.00596      -0.00557
    27  F(19)             -0.00019      -0.78760      -0.28104      -0.26272
    28  F(19)             -0.00000      -0.00686      -0.00245      -0.00229
    29  F(19)             -0.00000      -0.00110      -0.00039      -0.00037
    30  C(13)              0.00070       0.78435       0.27988       0.26163
    31  C(13)              0.00579       6.50414       2.32084       2.16955
    32  C(13)              0.00782       8.79255       3.13740       2.93288
    33  C(13)              0.00350       3.93800       1.40518       1.31358
    34  C(13)              0.01537      17.28434       6.16748       5.76544
    35  C(13)              0.00959      10.77606       3.84517       3.59451
    36  C(13)              0.00511       5.74929       2.05149       1.91776
    37  H(1)              -0.00137      -6.14304      -2.19199      -2.04910
    38  H(1)              -0.00143      -6.39133      -2.28059      -2.13192
    39  H(1)              -0.00109      -4.87905      -1.74097      -1.62747
    40  N(14)              0.00055       0.17846       0.06368       0.05953
    41  N(14)              0.00165       0.53303       0.19020       0.17780
    42  N(14)              0.03586      11.58690       4.13450       3.86498
    43  N(14)             -0.00330      -1.06469      -0.37991      -0.35514
    44  C(13)             -0.03817     -42.91446     -15.31295     -14.31472
    45  H(1)               0.01544      69.01496      24.62626      23.02091
    46  H(1)               0.00107       4.77705       1.70457       1.59345
    47  C(13)             -0.00017      -0.18823      -0.06717      -0.06279
    48  C(13)             -0.00011      -0.11992      -0.04279      -0.04000
    49  C(13)              0.00011       0.12144       0.04333       0.04051
    50  C(13)             -0.00007      -0.07515      -0.02682      -0.02507
    51  H(1)              -0.00002      -0.10979      -0.03918      -0.03662
    52  C(13)              0.00002       0.02372       0.00846       0.00791
    53  H(1)               0.00001       0.03540       0.01263       0.01181
    54  C(13)             -0.00001      -0.01434      -0.00512      -0.00478
    55  H(1)               0.00003       0.12903       0.04604       0.04304
    56  H(1)              -0.00000      -0.01123      -0.00401      -0.00375
    57  H(1)               0.00001       0.02577       0.00920       0.00860
    58  Yb(171            -0.00012      -0.09151      -0.03265      -0.03052
    59  O(17)              0.01257      -7.62034      -2.71913      -2.54187
    60  C(13)              0.00064       0.72508       0.25873       0.24186
    61  H(1)              -0.00001      -0.03107      -0.01109      -0.01036
    62  H(1)               0.00009       0.40544       0.14467       0.13524
    63  H(1)              -0.00000      -0.01993      -0.00711      -0.00665
    64  C(13)             -0.00013      -0.15046      -0.05369      -0.05019
    65  H(1)              -0.00044      -1.96087      -0.69969      -0.65407
    66  H(1)              -0.00001      -0.03310      -0.01181      -0.01104
    67  H(1)              -0.00002      -0.08588      -0.03065      -0.02865
 --------------------------------------------------------
       Center         ----  Spin Dipole Couplings  ----
                      3XX-RR        3YY-RR        3ZZ-RR
 --------------------------------------------------------
     1   Atom       -0.111008      0.302848     -0.191840
     2   Atom       -0.006595     -0.033787      0.040382
     3   Atom        0.015693     -0.001546     -0.014147
     4   Atom        0.095794     -0.051158     -0.044635
     5   Atom       -0.118799     -0.129212      0.248011
     6   Atom        0.003337     -0.001572     -0.001765
     7   Atom        0.003166     -0.000888     -0.002278
     8   Atom        0.000154      0.001177     -0.001331
     9   Atom       -0.000099      0.000697     -0.000597
    10   Atom        0.001315     -0.000703     -0.000612
    11   Atom        0.000199     -0.001628      0.001428
    12   Atom        0.000145      0.000526     -0.000670
    13   Atom       -0.000134      0.000248     -0.000114
    14   Atom        0.002697     -0.001462     -0.001236
    15   Atom        0.000971     -0.000590     -0.000381
    16   Atom        0.004722     -0.002441     -0.002281
    17   Atom        0.002165     -0.003959      0.001794
    18   Atom        0.000556     -0.000484     -0.000072
    19   Atom        0.000688     -0.000356     -0.000332
    20   Atom       -0.000560      0.001152     -0.000591
    21   Atom        0.000373     -0.000210     -0.000164
    22   Atom        0.000727     -0.000409     -0.000319
    23   Atom        0.000232     -0.000348      0.000116
    24   Atom        0.000566     -0.000284     -0.000282
    25   Atom        0.000483     -0.000238     -0.000245
    26   Atom        0.000418     -0.000230     -0.000188
    27   Atom       -0.001046      0.001794     -0.000748
    28   Atom       -0.000337      0.000614     -0.000277
    29   Atom       -0.000487      0.001027     -0.000540
    30   Atom        0.016488     -0.001707     -0.014781
    31   Atom       -0.004584      0.007946     -0.003362
    32   Atom        0.007037     -0.005636     -0.001401
    33   Atom       -0.000761     -0.002727      0.003488
    34   Atom       -0.034176      0.077274     -0.043098
    35   Atom       -0.031817      0.054837     -0.023019
    36   Atom       -0.028349      0.051303     -0.022954
    37   Atom        0.005052      0.000378     -0.005430
    38   Atom       -0.001287     -0.003317      0.004604
    39   Atom       -0.005708     -0.001486      0.007195
    40   Atom        0.002096      0.003015     -0.005111
    41   Atom       -0.002805     -0.000961      0.003766
    42   Atom       -0.210102      0.439950     -0.229848
    43   Atom       -0.054392      0.105360     -0.050968
    44   Atom       -0.002567      0.004886     -0.002318
    45   Atom       -0.002243      0.005578     -0.003335
    46   Atom        0.000353     -0.003071      0.002719
    47   Atom        0.000133      0.002732     -0.002865
    48   Atom       -0.001286      0.003629     -0.002343
    49   Atom        0.000830      0.001079     -0.001910
    50   Atom       -0.000516      0.001611     -0.001094
    51   Atom       -0.002400      0.004749     -0.002349
    52   Atom        0.000147      0.000782     -0.000929
    53   Atom        0.001641      0.000162     -0.001803
    54   Atom       -0.000086      0.001056     -0.000970
    55   Atom       -0.000611      0.001384     -0.000773
    56   Atom        0.000231      0.000350     -0.000581
    57   Atom       -0.000165      0.000599     -0.000434
    58   Atom        0.007746     -0.007413     -0.000333
    59   Atom       -0.163943      0.383927     -0.219983
    60   Atom        0.001556     -0.000498     -0.001058
    61   Atom        0.001417     -0.000553     -0.000864
    62   Atom       -0.000890     -0.000267      0.001156
    63   Atom        0.001589      0.001328     -0.002917
    64   Atom       -0.001573     -0.000280      0.001853
    65   Atom       -0.002046     -0.000510      0.002556
    66   Atom       -0.000758      0.000247      0.000510
    67   Atom       -0.001145      0.001114      0.000030
 --------------------------------------------------------
                        XY            XZ            YZ
 --------------------------------------------------------
[...]
    29   Atom       -0.000279      0.000017     -0.000061
    30   Atom       -0.019142      0.007980     -0.015249
    31   Atom       -0.002195     -0.006509     -0.008053
    32   Atom        0.001634     -0.005310     -0.002394
    33   Atom        0.004979      0.003254      0.004673
    34   Atom       -0.027267     -0.013434      0.168723
    35   Atom       -0.021619     -0.009659      0.126783
    36   Atom       -0.005642      0.005820      0.004898
    37   Atom        0.005476     -0.007983      0.004192
    38   Atom       -0.007409      0.018148     -0.003532
    39   Atom       -0.001011      0.002275     -0.004992
    40   Atom        0.002178     -0.002768      0.002198
    41   Atom        0.003092      0.002618      0.008093
    42   Atom       -0.019326     -0.012537      0.433296
    43   Atom        0.013429      0.010411      0.092099
    44   Atom       -0.002047     -0.005561      0.020096
    45   Atom        0.006591      0.004917      0.006940
    46   Atom        0.000027     -0.001057     -0.003613
    47   Atom        0.000919     -0.000187     -0.001526
    48   Atom       -0.000119      0.000096     -0.001069
    49   Atom        0.002784     -0.000182     -0.000464
    50   Atom        0.000223      0.000036     -0.000207
    51   Atom       -0.000450      0.000130     -0.001007
    52   Atom        0.001114      0.000225      0.000212
    53   Atom        0.004727     -0.000074     -0.001074
    54   Atom        0.000530     -0.000104      0.000047
    55   Atom       -0.000037      0.000003     -0.000123
    56   Atom        0.001093      0.000244      0.000329
    57   Atom        0.000323      0.000047      0.000155
    58   Atom       -0.000912     -0.000129      0.001507
    59   Atom       -0.041505      0.008245     -0.010565
    60   Atom       -0.001486      0.001734      0.000655
    61   Atom        0.000327      0.001592      0.000210
    62   Atom        0.000720      0.003140      0.001048
    63   Atom        0.002137      0.001963      0.000230
    64   Atom       -0.000302     -0.000695      0.003772
    65   Atom       -0.001526     -0.001557      0.003157
    66   Atom       -0.001593     -0.000743      0.005062
    67   Atom       -0.000547     -0.000203      0.001618
 --------------------------------------------------------


 ---------------------------------------------------------------------------------
              Anisotropic Spin Dipole Couplings in Principal Axis System
 ---------------------------------------------------------------------------------

       Atom             a.u.   MegaHertz   Gauss  10(-4) cm-1        Axes

              Baa    -0.0539    -7.235    -2.582    -2.413 -0.2802  0.1138  0.9532
     1 C(13)  Bbb    -0.0500    -6.706    -2.393    -2.237  0.7952  0.5837  0.1641
              Bcc     0.1039    13.941     4.975     4.650 -0.5376  0.8040 -0.2541
 
              Baa    -0.0088    -1.176    -0.420    -0.392  0.7071  0.6069 -0.3630
     2 C(13)  Bbb    -0.0009    -0.125    -0.045    -0.042  0.6952 -0.5028  0.5136
              Bcc     0.0097     1.301     0.464     0.434 -0.1292  0.6155  0.7774
 
              Baa    -0.0033    -0.440    -0.157    -0.147 -0.4497 -0.1170  0.8855
     3 C(13)  Bbb    -0.0014    -0.190    -0.068    -0.063  0.2070  0.9507  0.2308
              Bcc     0.0047     0.630     0.225     0.210  0.8688 -0.2871  0.4034
 
              Baa    -0.0051     0.369     0.132     0.123  0.1515  0.9769  0.1505
     4 O(17)  Bbb    -0.0025     0.180     0.064     0.060 -0.4185 -0.0745  0.9052
              Bcc     0.0076    -0.548    -0.196    -0.183  0.8955 -0.2001  0.3975
 
              Baa    -0.0207     1.496     0.534     0.499  0.9241  0.3777 -0.0590
     5 O(17)  Bbb    -0.0154     1.115     0.398     0.372 -0.3731  0.8577 -0.3539
              Bcc     0.0361    -2.611    -0.932    -0.871 -0.0831  0.3490  0.9334
 
              Baa    -0.0007     0.053     0.019     0.018  0.1174  0.9924 -0.0368
     6 O(17)  Bbb    -0.0007     0.052     0.019     0.017 -0.0712  0.0454  0.9964
              Bcc     0.0014    -0.105    -0.037    -0.035  0.9905 -0.1143  0.0760
 
              Baa    -0.0009     0.062     0.022     0.021  0.2114  0.9219 -0.3246
     7 O(17)  Bbb    -0.0005     0.035     0.012     0.012  0.2078  0.2821  0.9366
              Bcc     0.0013    -0.097    -0.035    -0.032  0.9551 -0.2654 -0.1319
 
              Baa    -0.0005     0.037     0.013     0.012  0.6696  0.6581  0.3442
     8 O(17)  Bbb    -0.0005     0.035     0.013     0.012 -0.3751 -0.1003  0.9216
              Bcc     0.0010    -0.072    -0.026    -0.024 -0.6410  0.7462 -0.1797
 
              Baa    -0.0003    -0.014    -0.005    -0.005  0.7647  0.5811  0.2785
     9 S(33)  Bbb    -0.0003    -0.013    -0.005    -0.004 -0.2155 -0.1766  0.9604
              Bcc     0.0007     0.028     0.010     0.009 -0.6073  0.7944  0.0098
 
              Baa    -0.0004    -0.016    -0.006    -0.005 -0.3255 -0.2055  0.9229
    10 S(33)  Bbb    -0.0004    -0.015    -0.005    -0.005  0.0901  0.9649  0.2466
              Bcc     0.0008     0.031     0.011     0.010  0.9412 -0.1634  0.2956
 
              Baa    -0.0015    -0.063    -0.023    -0.021  0.2486  0.9686 -0.0050
    11 S(33)  Bbb    -0.0012    -0.051    -0.018    -0.017  0.4157 -0.1020  0.9038
              Bcc     0.0028     0.114     0.041     0.038  0.8749 -0.2267 -0.4280
 
              Baa    -0.0005     0.034     0.012     0.011  0.7223  0.6774  0.1394
    12 O(17)  Bbb    -0.0004     0.032     0.012     0.011 -0.0042 -0.1973  0.9803
              Bcc     0.0009    -0.066    -0.024    -0.022 -0.6916  0.7087  0.1396
 
              Baa    -0.0002     0.016     0.006     0.005  0.7289  0.5595  0.3946
    13 O(17)  Bbb    -0.0002     0.011     0.004     0.004 -0.3111 -0.2428  0.9188
              Bcc     0.0004    -0.027    -0.010    -0.009 -0.6099  0.7925  0.0029
 
              Baa    -0.0004     0.031     0.011     0.010 -0.0131  0.6720  0.7404
    14 O(17)  Bbb    -0.0004     0.030     0.011     0.010  0.4253  0.6739 -0.6042
              Bcc     0.0008    -0.061    -0.022    -0.020  0.9050 -0.3070  0.2946
 
              Baa    -0.0005     0.035     0.013     0.012 -0.3604 -0.6395  0.6791
    15 O(17)  Bbb    -0.0005     0.033     0.012     0.011 -0.1668  0.7605  0.6276
              Bcc     0.0009    -0.069    -0.025    -0.023  0.9178 -0.1129  0.3807
 
              Baa    -0.0030     0.215     0.077     0.072 -0.0057  0.8934  0.4492
    16 O(17)  Bbb    -0.0028     0.199     0.071     0.066  0.1944 -0.4396  0.8769
              Bcc     0.0057    -0.414    -0.148    -0.138  0.9809  0.0923 -0.1712
 
              Baa    -0.0061     0.444     0.158     0.148  0.6098  0.2992  0.7339
    17 O(17)  Bbb    -0.0059     0.426     0.152     0.142  0.0033  0.9251 -0.3798
              Bcc     0.0120    -0.870    -0.310    -0.290  0.7925 -0.2341 -0.5631
 
              Baa    -0.0008    -0.108    -0.038    -0.036  0.4057  0.1196  0.9061
    18 C(13)  Bbb    -0.0007    -0.089    -0.032    -0.030 -0.1871  0.9813 -0.0458
              Bcc     0.0015     0.197     0.070     0.066  0.8947  0.1510 -0.4205
 
              Baa    -0.0002    -0.030    -0.011    -0.010  0.0208  0.8971  0.4414
    19 C(13)  Bbb    -0.0002    -0.029    -0.010    -0.010 -0.2252 -0.4259  0.8763
              Bcc     0.0004     0.059     0.021     0.020  0.9741 -0.1176  0.1931
 
              Baa    -0.0004    -0.050    -0.018    -0.017 -0.2362 -0.1740  0.9560
    20 C(13)  Bbb    -0.0004    -0.049    -0.017    -0.016  0.8853  0.3671  0.2856
              Bcc     0.0007     0.098     0.035     0.033 -0.4007  0.9137  0.0674
 
              Baa    -0.0010    -0.487    -0.174    -0.162  0.3606  0.2432  0.9004
    21 F(19)  Bbb    -0.0009    -0.437    -0.156    -0.146 -0.4140  0.9068 -0.0791
              Bcc     0.0018     0.923     0.330     0.308  0.8358  0.3442 -0.4277
 
              Baa    -0.0005    -0.256    -0.091    -0.085  0.2704 -0.0474  0.9616
    22 F(19)  Bbb    -0.0005    -0.242    -0.086    -0.081 -0.1112  0.9906  0.0801
              Bcc     0.0010     0.498     0.178     0.166  0.9563  0.1286 -0.2626
 
              Baa    -0.0005    -0.241    -0.086    -0.080  0.3401  0.7453  0.5735
    23 F(19)  Bbb    -0.0005    -0.229    -0.082    -0.076 -0.4536  0.6642 -0.5942
              Bcc     0.0009     0.470     0.168     0.157  0.8238  0.0581 -0.5640
 
              Baa    -0.0002    -0.097    -0.035    -0.032  0.1500  0.8984  0.4128
    24 F(19)  Bbb    -0.0002    -0.092    -0.033    -0.031 -0.1648 -0.3890  0.9064
              Bcc     0.0004     0.189     0.067     0.063  0.9749 -0.2040  0.0897
 
              Baa    -0.0002    -0.097    -0.035    -0.032 -0.0904  0.9031  0.4199
    25 F(19)  Bbb    -0.0002    -0.093    -0.033    -0.031 -0.1593 -0.4293  0.8890
              Bcc     0.0004     0.190     0.068     0.063  0.9831  0.0135  0.1827
 
              Baa    -0.0002    -0.079    -0.028    -0.026 -0.0540  0.8007  0.5966
    26 F(19)  Bbb    -0.0002    -0.078    -0.028    -0.026 -0.3399 -0.5766  0.7430
              Bcc     0.0003     0.156     0.056     0.052  0.9389 -0.1626  0.3033
 
              Baa    -0.0007    -0.334    -0.119    -0.111  0.2904 -0.0387  0.9561
    27 F(19)  Bbb    -0.0006    -0.305    -0.109    -0.102  0.9127  0.3116 -0.2645
              Bcc     0.0013     0.639     0.228     0.213 -0.2877  0.9494  0.1257
 
              Baa    -0.0003    -0.128    -0.046    -0.043 -0.4820 -0.3536  0.8017
    28 F(19)  Bbb    -0.0002    -0.125    -0.044    -0.042  0.7891  0.2224  0.5725
              Bcc     0.0005     0.253     0.090     0.084 -0.3807  0.9086  0.1718
 
              Baa    -0.0003    -0.158    -0.056    -0.053  0.7828  0.3001  0.5452
    29 F(19)  Bbb    -0.0003    -0.155    -0.055    -0.052 -0.5366 -0.1182  0.8355
              Bcc     0.0006     0.313     0.112     0.104 -0.3152  0.9465 -0.0685
 
              Baa    -0.0182    -2.436    -0.869    -0.812  0.3867  0.6137  0.6883
    30 C(13)  Bbb    -0.0137    -1.839    -0.656    -0.613  0.7605  0.2099 -0.6145
              Bcc     0.0319     4.275     1.525     1.426 -0.5216  0.7611 -0.3856
 
              Baa    -0.0119    -1.600    -0.571    -0.534  0.7624  0.4232  0.4895
    31 C(13)  Bbb    -0.0004    -0.060    -0.021    -0.020 -0.6104  0.7215  0.3269
              Bcc     0.0124     1.660     0.592     0.554 -0.2148 -0.5480  0.8084
 
              Baa    -0.0053    -0.715    -0.255    -0.239  0.0418  0.9350  0.3522
    32 C(13)  Bbb    -0.0029    -0.388    -0.138    -0.129  0.6939 -0.2808  0.6630
              Bcc     0.0082     1.103     0.394     0.368  0.7188  0.2167 -0.6606
 
              Baa    -0.0091    -1.218    -0.435    -0.406 -0.5627  0.8179 -0.1201
    33 C(13)  Bbb    -0.0017    -0.230    -0.082    -0.077  0.7501  0.4440 -0.4901
              Bcc     0.0108     1.448     0.517     0.483  0.3475  0.3659  0.8633
 
              Baa    -0.1522   -20.417    -7.285    -6.810  0.4686 -0.3332  0.8182
    34 C(13)  Bbb    -0.1496   -20.070    -7.161    -6.695  0.8808  0.2469 -0.4040
              Bcc     0.3017    40.487    14.447    13.505 -0.0674  0.9100  0.4092
 
              Baa    -0.1236   -16.579    -5.916    -5.530  0.9975  0.0695  0.0105
    35 C(13)  Bbb    -0.1046   -14.037    -5.009    -4.682  0.0197 -0.4210  0.9068
              Bcc     0.2282    30.616    10.925    10.212 -0.0675  0.9044  0.4213
 
              Baa    -0.0116    -1.559    -0.556    -0.520  0.7054  0.4266 -0.5660
    36 C(13)  Bbb     0.0039     0.518     0.185     0.173  0.6511 -0.0745  0.7553
              Bcc     0.0078     1.041     0.371     0.347 -0.2801  0.9013  0.3304
 
              Baa    -0.0193   -10.303    -3.676    -3.437  0.2251 -0.3825  0.8961
    37 H(1)   Bbb    -0.0048    -2.560    -0.914    -0.854 -0.0660  0.9116  0.4057
              Bcc     0.0241    12.864     4.590     4.291  0.9721  0.1504 -0.1799
 
              Baa    -0.0175    -9.319    -3.325    -3.109  0.7794  0.2926 -0.5540
    38 H(1)   Bbb    -0.0054    -2.858    -1.020    -0.953 -0.0687  0.9188  0.3886
              Bcc     0.0228    12.177     4.345     4.062  0.6227 -0.2649  0.7363
 
              Baa    -0.0049    -2.628    -0.938    -0.877  0.1052  0.9229  0.3703
    39 H(1)   Bbb    -0.0045    -2.410    -0.860    -0.804  0.9778 -0.0281 -0.2077
              Bcc     0.0094     5.038     1.798     1.681  0.1813 -0.3839  0.9054
 
              Baa    -0.0059    -0.228    -0.081    -0.076  0.3968 -0.3575  0.8454
    40 N(14)  Bbb     0.0018     0.071     0.025     0.024 -0.4915  0.6951  0.5246
              Bcc     0.0041     0.157     0.056     0.052  0.7752  0.6237 -0.1001
 
              Baa    -0.0061    -0.236    -0.084    -0.079  0.6584 -0.6409  0.3947
    41 N(14)  Bbb    -0.0053    -0.205    -0.073    -0.068  0.7125  0.3617 -0.6012
              Bcc     0.0114     0.442     0.158     0.147  0.2425  0.6771  0.6948
 
              Baa    -0.4567   -17.614    -6.285    -5.875  0.8528 -0.1651  0.4954
    42 N(14)  Bbb    -0.4451   -17.165    -6.125    -5.726 -0.5219 -0.2995  0.7987
              Bcc     0.9018    34.779    12.410    11.601 -0.0166  0.9397  0.3416
 
              Baa    -0.1210    -4.668    -1.666    -1.557  0.9586  0.0419 -0.2816
    43 N(14)  Bbb    -0.0993    -3.828    -1.366    -1.277  0.2808 -0.3026  0.9108
              Bcc     0.2203     8.496     3.031     2.834  0.0470  0.9522  0.3019
 
              Baa    -0.0284    -3.807    -1.358    -1.270  0.2559 -0.3018  0.9184
    44 C(13)  Bbb    -0.0099    -1.329    -0.474    -0.443  0.9637  0.1550 -0.2176
              Bcc     0.0383     5.136     1.833     1.713 -0.0767  0.9407  0.3305
 
              Baa    -0.0085    -4.509    -1.609    -1.504 -0.5810  0.7825 -0.2240
    45 H(1)   Bbb    -0.0041    -2.182    -0.779    -0.728 -0.6453 -0.2751  0.7127
              Bcc     0.0125     6.691     2.388     2.232  0.4960  0.5586  0.6648
 
              Baa    -0.0033    -1.751    -0.625    -0.584  0.7100  0.5608  0.4259
    46 H(1)   Bbb    -0.0022    -1.196    -0.427    -0.399  0.6952 -0.6544 -0.2973
              Bcc     0.0055     2.946     1.051     0.983 -0.1120 -0.5072  0.8545
 
              Baa    -0.0026    -0.355    -0.126    -0.118  0.9894 -0.1420 -0.0299
    47 C(13)  Bbb    -0.0019    -0.262    -0.093    -0.087  0.0631  0.2358  0.9698
              Bcc     0.0046     0.616     0.220     0.206  0.1307  0.9614 -0.2423
 
              Baa    -0.0016    -0.208    -0.074    -0.069  0.9005 -0.0828 -0.4269
    48 C(13)  Bbb    -0.0014    -0.187    -0.067    -0.062  0.4337  0.2418  0.8680
              Bcc     0.0029     0.395     0.141     0.132 -0.0313  0.9668 -0.2537
 
              Baa    -0.0025    -0.330    -0.118    -0.110  0.8787 -0.4678 -0.0956
    49 C(13)  Bbb    -0.0019    -0.255    -0.091    -0.085  0.1216  0.0255  0.9923
              Bcc     0.0044     0.585     0.209     0.195  0.4617  0.8835 -0.0793
 
              Baa    -0.0009    -0.115    -0.041    -0.038 -0.4435  0.1186  0.8884
    50 C(13)  Bbb    -0.0007    -0.096    -0.034    -0.032  0.8912 -0.0468  0.4512
              Bcc     0.0016     0.211     0.075     0.070  0.0950  0.9918 -0.0849
 
              Baa    -0.0012    -0.623    -0.222    -0.208  0.1849  0.3394  0.9223
    51 H(1)   Bbb    -0.0011    -0.563    -0.201    -0.188  0.9721  0.0744 -0.2223
              Bcc     0.0022     1.186     0.423     0.396 -0.1440  0.9377 -0.3161
 
              Baa    -0.0012    -0.160    -0.057    -0.053 -0.5679  0.1638  0.8066
    52 C(13)  Bbb    -0.0009    -0.125    -0.045    -0.042  0.7250 -0.3645  0.5844
              Bcc     0.0021     0.285     0.102     0.095  0.3897  0.9167  0.0883
 
              Baa    -0.0038    -2.038    -0.727    -0.680  0.5908 -0.5728 -0.5682
    53 H(1)   Bbb    -0.0025    -1.308    -0.467    -0.436  0.4855 -0.3101  0.8174
              Bcc     0.0063     3.346     1.194     1.116  0.6444  0.7588 -0.0949
 
              Baa    -0.0008    -0.101    -0.036    -0.034  0.7023 -0.2147  0.6787
    54 C(13)  Bbb    -0.0005    -0.071    -0.025    -0.024 -0.6521  0.1882  0.7344
              Bcc     0.0013     0.172     0.062     0.057  0.2854  0.9584  0.0078
 
              Baa    -0.0005    -0.261    -0.093    -0.087  0.0015  0.0856  0.9963
    55 H(1)   Bbb    -0.0005    -0.246    -0.088    -0.082  0.9997  0.0261 -0.0037
              Bcc     0.0010     0.508     0.181     0.169 -0.0263  0.9960 -0.0855
 
              Baa    -0.0009    -0.467    -0.167    -0.156 -0.6775  0.2845  0.6783
    56 H(1)   Bbb    -0.0008    -0.429    -0.153    -0.143  0.5231 -0.4619  0.7162
              Bcc     0.0017     0.897     0.320     0.299  0.5171  0.8401  0.1641
 
              Baa    -0.0004    -0.239    -0.085    -0.080  0.7400 -0.1113 -0.6633
    57 H(1)   Bbb    -0.0004    -0.232    -0.083    -0.078  0.6225 -0.2602  0.7381
              Bcc     0.0009     0.471     0.168     0.157  0.2547  0.9591  0.1233
 
              Baa    -0.0027    -0.259    -0.092    -0.086  0.1551  0.8560 -0.4932
    58 Yb(171 Bbb     0.0005     0.050     0.018     0.017  0.3605  0.4157  0.8350
              Bcc     0.0022     0.209     0.075     0.070  0.9198 -0.3073 -0.2441
 
              Baa    -0.0417     3.014     1.075     1.005 -0.6793 -0.2102  0.7031
    59 O(17)  Bbb    -0.0350     2.533     0.904     0.845  0.6158  0.3580  0.7019
              Bcc     0.0767    -5.546    -1.979    -1.850 -0.3993  0.9098 -0.1137
 
              Baa    -0.0038    -0.506    -0.181    -0.169  0.2464  0.8121 -0.5290
    60 C(13)  Bbb    -0.0017    -0.228    -0.081    -0.076 -0.0900  0.5626  0.8218
              Bcc     0.0055     0.734     0.262     0.245  0.9650 -0.1549  0.2117
 
              Baa    -0.0013    -0.682    -0.243    -0.228 -0.3241 -0.6251  0.7101
    61 H(1)   Bbb    -0.0012    -0.657    -0.235    -0.219 -0.3781  0.7736  0.5085
              Bcc     0.0025     1.340     0.478     0.447  0.8672  0.1037  0.4871
 
              Baa    -0.0030    -1.588    -0.567    -0.530  0.0034  0.9737 -0.2277
    62 H(1)   Bbb    -0.0017    -0.932    -0.333    -0.311  0.7398 -0.1556 -0.6546
              Bcc     0.0047     2.521     0.899     0.841  0.6729  0.1662  0.7209
 
              Baa    -0.0031    -1.661    -0.593    -0.554 -0.3629  0.8861  0.2882
    63 H(1)   Bbb    -0.0018    -0.978    -0.349    -0.326 -0.1814 -0.3705  0.9109
              Bcc     0.0049     2.639     0.942     0.880  0.9140  0.2783  0.2953
 
              Baa    -0.0042    -0.566    -0.202    -0.189  0.4032 -0.3216  0.8568
    64 C(13)  Bbb    -0.0028    -0.372    -0.133    -0.124  0.9135  0.1967 -0.3560
              Bcc     0.0070     0.938     0.335     0.313 -0.0540  0.9262  0.3731
 
              Baa    -0.0030    -1.577    -0.563    -0.526  0.9171  0.0301  0.3975
    65 H(1)   Bbb    -0.0020    -1.091    -0.389    -0.364 -0.2767 -0.6698  0.6891
              Bcc     0.0050     2.668     0.952     0.890 -0.2870  0.7419  0.6059
 
              Baa    -0.0045    -2.426    -0.866    -0.809 -0.0879 -0.5003  0.8614
    66 H(1)   Bbb    -0.0031    -1.628    -0.581    -0.543  0.9821  0.1013  0.1590
              Bcc     0.0076     4.054     1.447     1.352 -0.1668  0.8599  0.4824
 
              Baa    -0.0017    -0.928    -0.331    -0.310  0.0028 -0.3472  0.9378
    67 H(1)   Bbb    -0.0016    -0.832    -0.297    -0.278  0.9927  0.1144  0.0394
              Bcc     0.0033     1.760     0.628     0.587 -0.1210  0.9308  0.3449
 

 ---------------------------------------------------------------------------------


 This type of calculation cannot be archived.


 A successful marriage requires falling in love
 many times, always with the same person.
                           -- Mignon McLaughlin
 Job cpu time:      50 days 17 hours 19 minutes 50.5 seconds.
 Elapsed time:       2 days 14 hours 11 minutes 41.0 seconds.
 File lengths (MBytes):  RWF=  12748 Int=      0 D2E=      0 Chk=    148 Scr=      8
 Normal termination of Gaussian 16 at Thu Mar 27 04:17:00 2025.
