 Entering Gaussian System, Link 0=/sysapps/ubuntu-applications/gaussian-new/avx/g16//g16
 Input=i3-minor.in
 Output=i3-minor.log
 Initial command:
 /sysapps/ubuntu-applications/gaussian-new/avx/g16/l1.exe "/data/temp-scratch/selhajj1/7633634/Gau-3964335.inp" -scrdir="/data/temp-scratch/selhajj1/7633634/"
 Entering Link 1 = /sysapps/ubuntu-applications/gaussian-new/avx/g16/l1.exe PID=   3964337.
  
 Copyright (c) 1988,1990,1992,1993,1995,1998,2003,2009,2016,
            Gaussian, Inc.  All Rights Reserved.
  
 This is part of the Gaussian(R) 16 program.  It is based on
 the Gaussian(R) 09 system (copyright 2009, Gaussian, Inc.),
 the Gaussian(R) 03 system (copyright 2003, Gaussian, Inc.),
 the Gaussian(R) 98 system (copyright 1998, Gaussian, Inc.),
 the Gaussian(R) 94 system (copyright 1995, Gaussian, Inc.),
 the Gaussian 92(TM) system (copyright 1992, Gaussian, Inc.),
 the Gaussian 90(TM) system (copyright 1990, Gaussian, Inc.),
 the Gaussian 88(TM) system (copyright 1988, Gaussian, Inc.),
 the Gaussian 86(TM) system (copyright 1986, Carnegie Mellon
 University), and the Gaussian 82(TM) system (copyright 1983,
 Carnegie Mellon University). Gaussian is a federally registered
 trademark of Gaussian, Inc.
  
 This software contains proprietary and confidential information,
 including trade secrets, belonging to Gaussian, Inc.
  
 This software is provided under written license and may be
 used, copied, transmitted, or stored only in accord with that
 written license.
  
 The following legend is applicable only to US Government
 contracts under FAR:
  
                    RESTRICTED RIGHTS LEGEND
  
 Use, reproduction and disclosure by the US Government is
 subject to restrictions as set forth in subparagraphs (a)
 and (c) of the Commercial Computer Software - Restricted
 Rights clause in FAR 52.227-19.
  
 Gaussian, Inc.
 340 Quinnipiac St., Bldg. 40, Wallingford CT 06492
  
  
 ---------------------------------------------------------------
 Warning -- This program may not be used in any manner that
 competes with the business of Gaussian, Inc. or will provide
 assistance to any competitor of Gaussian, Inc.  The licensee
 of this program is prohibited from giving any competitor of
 Gaussian, Inc. access to this program.  By using this program,
 the user acknowledges that Gaussian, Inc. is engaged in the
 business of creating and licensing software in the field of
 computational chemistry and represents and warrants to the
 licensee that it is not a competitor of Gaussian, Inc. and that
 it will not use this program in any manner prohibited above.
 ---------------------------------------------------------------
  

 Cite this work as:
 Gaussian 16, Revision A.03,
 M. J. Frisch, G. W. Trucks, H. B. Schlegel, G. E. Scuseria, 
 M. A. Robb, J. R. Cheeseman, G. Scalmani, V. Barone, 
 G. A. Petersson, H. Nakatsuji, X. Li, M. Caricato, A. V. Marenich, 
 J. Bloino, B. G. Janesko, R. Gomperts, B. Mennucci, H. P. Hratchian, 
 J. V. Ortiz, A. F. Izmaylov, J. L. Sonnenberg, D. Williams-Young, 
 F. Ding, F. Lipparini, F. Egidi, J. Goings, B. Peng, A. Petrone, 
 T. Henderson, D. Ranasinghe, V. G. Zakrzewski, J. Gao, N. Rega, 
 G. Zheng, W. Liang, M. Hada, M. Ehara, K. Toyota, R. Fukuda, 
 J. Hasegawa, M. Ishida, T. Nakajima, Y. Honda, O. Kitao, H. Nakai, 
 T. Vreven, K. Throssell, J. A. Montgomery, Jr., J. E. Peralta, 
 F. Ogliaro, M. J. Bearpark, J. J. Heyd, E. N. Brothers, K. N. Kudin, 
 V. N. Staroverov, T. A. Keith, R. Kobayashi, J. Normand, 
 K. Raghavachari, A. P. Rendell, J. C. Burant, S. S. Iyengar, 
 J. Tomasi, M. Cossi, J. M. Millam, M. Klene, C. Adamo, R. Cammi, 
 J. W. Ochterski, R. L. Martin, K. Morokuma, O. Farkas, 
 J. B. Foresman, and D. J. Fox, Gaussian, Inc., Wallingford CT, 2016.
 
 ******************************************
 Gaussian 16:  ES64L-G16RevA.03 25-Dec-2016
                 4-Mar-2025 
 ******************************************
 %chk=i3-minor.chk
 %mem=616Gb
 %nprocshared=24
 Will use up to   24 processors via shared memory.
 -------------------------------------------------------------------
 #P MN15/gen scf=(maxcyc=500) freq scrf=(smd,solvent=DiChloroEthane)
 -------------------------------------------------------------------
 1/10=4,30=1,38=1/1,3;
 2/12=2,17=6,18=5,40=1/2;
 3/5=7,11=2,25=1,30=1,70=32201,71=2,72=10,74=-73,140=1/1,2,3;
 4//1;
 5/5=2,7=500,38=5,53=10,98=1/2;
 8/6=4,10=90,11=11/1;
 11/6=1,8=1,9=11,15=111,16=1/1,2,10;
 10/6=1/2;
 6/7=2,8=2,9=2,10=2,28=1/1;
 7/8=1,10=1,25=1/1,2,3,16;
 1/10=4,30=1/3;
 99//99;
 Leave Link    1 at Tue Mar  4 15:07:49 2025, MaxMem= 82678120448 cpu:               3.2 elap:               0.2
 (Enter /sysapps/ubuntu-applications/gaussian-new/avx/g16/l101.exe)
 ---
 Opt
 ---
 Symbolic Z-matrix:
 Charge =  0 Multiplicity = 1
 C                    -1.97413  -0.91047   0.80809 
 C                    -1.47239  -0.4629   -0.57665 
 C                    -0.81517  -1.35381   1.72887 
 O                     0.30232  -0.85656   1.61911 
 O                    -0.48835   0.28174  -0.62506 
 O                     3.08076  -1.31847   0.68097 
 O                     2.16881  -0.23388  -1.83684 
 O                     0.60723   2.01021   1.19282 
 S                     1.56245   2.9392    0.5193 
 S                     3.72453  -0.55859   1.80315 
 S                     1.67825  -1.64224  -2.03969 
 O                     2.34125   2.05494  -0.41562 
 O                     2.28855   3.8882    1.31886 
 O                     2.84004   0.63493   1.9611 
 O                     4.11957  -1.28674   2.97701 
 O                     0.94826  -1.97739  -0.78644 
 O                     1.02309  -1.92829  -3.29198 
 C                     3.2369   -2.67989  -2.023 
 C                     5.25967   0.09444   1.02291 
 C                     0.52901   3.91546  -0.64732 
 F                     3.13399  -3.60761  -1.09502 
 F                     4.28757  -1.92075  -1.7905 
 F                     3.36234  -3.25124  -3.20536 
 F                     4.93613   0.70549  -0.10163 
 F                     6.06923  -0.91381   0.76537 
 F                     5.84419   0.94415   1.84266 
 F                    -0.02671   3.09476  -1.51754 
 F                     1.29429   4.78323  -1.2785 
 F                    -0.40768   4.55815   0.02848 
 C                    -3.86752   0.83349   1.06363 
 C                    -4.84803  -0.36285   1.15349 
 C                    -6.21672   0.03049   0.74932 
 C                    -4.94797  -0.80147   2.57894 
 C                    -2.70078  -3.20025  -0.05192 
 C                    -5.05969  -3.5359   -0.34876 
 C                    -3.67673  -3.95656  -0.5687 
 H                    -1.63878  -3.4389   -0.17646 
 H                    -5.89224  -4.20409  -0.58531 
 H                    -3.47255  -4.86073  -1.14392 
 N                    -7.2854    0.39873   0.50309 
 N                    -4.94337  -1.19505   3.66816 
 N                    -4.35958  -1.46933   0.33859 
 N                    -5.37078  -2.36762   0.08389 
 C                    -3.06829  -2.00006   0.78672 
 H                    -3.18899  -2.34129   1.83592 
 C                    -2.49527   0.35944   1.55558 
 H                    -1.74572   1.15815   1.45303 
 H                    -2.56786   0.12044   2.62889 
 Sc                    1.50207   0.14816   0.18531 
 H                    -4.21604   1.57491   1.80026 
 C                    -3.8405    1.52327  -0.29457 
 C                    -3.10333   2.71586  -0.38105 
 C                    -4.52781   1.08037  -1.43377 
 C                    -3.06334   3.45062  -1.56473 
 H                    -2.56256   3.07818   0.49848 
 C                    -4.48631   1.81624  -2.62118 
 H                    -5.09198   0.14653  -1.42516 
 C                    -3.75676   3.00232  -2.69216 
 H                    -2.49073   4.37911  -1.60576 
 H                    -5.03028   1.4519   -3.4953 
 H                    -3.72861   3.57763  -3.62005 
 C                    -1.05975  -2.31392   2.84213 
 H                    -0.16063  -2.36161   3.46607 
 H                    -1.93116  -2.01338   3.44507 
 H                    -1.27454  -3.31338   2.42905 
 C                    -2.06325  -0.91261  -1.86353 
 H                    -3.09809  -1.25611  -1.8025 
 H                    -1.94206  -0.10481  -2.5985 
 H                    -1.42374  -1.75355  -2.19277 
 
 ITRead=  0  0  0  0  0  0  0  0  0  0  0  0  0  0  0  0  0  0  0  0
 ITRead=  0  0  0  0  0  0  0  0  0  0  0  0  0  0  0  0  0  0  0  0
 ITRead=  0  0  0  0  0  0  0  0  0  0  0  0  0  0  0  0  0  0  0  0
 ITRead=  0  0  0  0  0  0  0  0  0
 MicOpt= -1 -1 -1 -1 -1 -1 -1 -1 -1 -1 -1 -1 -1 -1 -1 -1 -1 -1 -1 -1
 MicOpt= -1 -1 -1 -1 -1 -1 -1 -1 -1 -1 -1 -1 -1 -1 -1 -1 -1 -1 -1 -1
 MicOpt= -1 -1 -1 -1 -1 -1 -1 -1 -1 -1 -1 -1 -1 -1 -1 -1 -1 -1 -1 -1
 MicOpt= -1 -1 -1 -1 -1 -1 -1 -1 -1
 NAtoms=     69 NQM=       69 NQMF=       0 NMMI=      0 NMMIF=      0
                NMic=       0 NMicF=      0.
                    Isotopes and Nuclear Properties:
 (Nuclear quadrupole moments (NQMom) in fm**2, nuclear magnetic moments (NMagM)
  in nuclear magnetons)

  Atom         1           2           3           4           5           6           7           8           9          10
 IAtWgt=          12          12          12          16          16          16          16          16          32          32
 AtmWgt=  12.0000000  12.0000000  12.0000000  15.9949146  15.9949146  15.9949146  15.9949146  15.9949146  31.9720718  31.9720718
 NucSpn=           0           0           0           0           0           0           0           0           0           0
 AtZEff=  -0.0000000  -0.0000000  -0.0000000  -0.0000000  -0.0000000  -0.0000000  -0.0000000  -0.0000000  -0.0000000  -0.0000000
 NQMom=    0.0000000   0.0000000   0.0000000   0.0000000   0.0000000   0.0000000   0.0000000   0.0000000   0.0000000   0.0000000
 NMagM=    0.0000000   0.0000000   0.0000000   0.0000000   0.0000000   0.0000000   0.0000000   0.0000000   0.0000000   0.0000000
 AtZNuc=   6.0000000   6.0000000   6.0000000   8.0000000   8.0000000   8.0000000   8.0000000   8.0000000  16.0000000  16.0000000

  Atom        11          12          13          14          15          16          17          18          19          20
 IAtWgt=          32          16          16          16          16          16          16          12          12          12
 AtmWgt=  31.9720718  15.9949146  15.9949146  15.9949146  15.9949146  15.9949146  15.9949146  12.0000000  12.0000000  12.0000000
 NucSpn=           0           0           0           0           0           0           0           0           0           0
 AtZEff=  -0.0000000  -0.0000000  -0.0000000  -0.0000000  -0.0000000  -0.0000000  -0.0000000  -0.0000000  -0.0000000  -0.0000000
 NQMom=    0.0000000   0.0000000   0.0000000   0.0000000   0.0000000   0.0000000   0.0000000   0.0000000   0.0000000   0.0000000
 NMagM=    0.0000000   0.0000000   0.0000000   0.0000000   0.0000000   0.0000000   0.0000000   0.0000000   0.0000000   0.0000000
 AtZNuc=  16.0000000   8.0000000   8.0000000   8.0000000   8.0000000   8.0000000   8.0000000   6.0000000   6.0000000   6.0000000

  Atom        21          22          23          24          25          26          27          28          29          30
 IAtWgt=          19          19          19          19          19          19          19          19          19          12
 AtmWgt=  18.9984032  18.9984032  18.9984032  18.9984032  18.9984032  18.9984032  18.9984032  18.9984032  18.9984032  12.0000000
 NucSpn=           1           1           1           1           1           1           1           1           1           0
 AtZEff=  -0.0000000  -0.0000000  -0.0000000  -0.0000000  -0.0000000  -0.0000000  -0.0000000  -0.0000000  -0.0000000  -0.0000000
 NQMom=    0.0000000   0.0000000   0.0000000   0.0000000   0.0000000   0.0000000   0.0000000   0.0000000   0.0000000   0.0000000
 NMagM=    2.6288670   2.6288670   2.6288670   2.6288670   2.6288670   2.6288670   2.6288670   2.6288670   2.6288670   0.0000000
 AtZNuc=   9.0000000   9.0000000   9.0000000   9.0000000   9.0000000   9.0000000   9.0000000   9.0000000   9.0000000   6.0000000

  Atom        31          32          33          34          35          36          37          38          39          40
 IAtWgt=          12          12          12          12          12          12           1           1           1          14
 AtmWgt=  12.0000000  12.0000000  12.0000000  12.0000000  12.0000000  12.0000000   1.0078250   1.0078250   1.0078250  14.0030740
 NucSpn=           0           0           0           0           0           0           1           1           1           2
 AtZEff=  -0.0000000  -0.0000000  -0.0000000  -0.0000000  -0.0000000  -0.0000000  -0.0000000  -0.0000000  -0.0000000  -0.0000000
 NQMom=    0.0000000   0.0000000   0.0000000   0.0000000   0.0000000   0.0000000   0.0000000   0.0000000   0.0000000   2.0440000
 NMagM=    0.0000000   0.0000000   0.0000000   0.0000000   0.0000000   0.0000000   2.7928460   2.7928460   2.7928460   0.4037610
 AtZNuc=   6.0000000   6.0000000   6.0000000   6.0000000   6.0000000   6.0000000   1.0000000   1.0000000   1.0000000   7.0000000

  Atom        41          42          43          44          45          46          47          48          49          50
 IAtWgt=          14          14          14          12           1          12           1           1          45           1
 AtmWgt=  14.0030740  14.0030740  14.0030740  12.0000000   1.0078250  12.0000000   1.0078250   1.0078250  44.9559136   1.0078250
 NucSpn=           2           2           2           0           1           0           1           1           7           1
 AtZEff=  -0.0000000  -0.0000000  -0.0000000  -0.0000000  -0.0000000  -0.0000000  -0.0000000  -0.0000000  -0.0000000  -0.0000000
 NQMom=    2.0440000   2.0440000   2.0440000   0.0000000   0.0000000   0.0000000   0.0000000   0.0000000 -22.0000000   0.0000000
 NMagM=    0.4037610   0.4037610   0.4037610   0.0000000   2.7928460   0.0000000   2.7928460   2.7928460   4.7564830   2.7928460
 AtZNuc=   7.0000000   7.0000000   7.0000000   6.0000000   1.0000000   6.0000000   1.0000000   1.0000000  21.0000000   1.0000000

  Atom        51          52          53          54          55          56          57          58          59          60
 IAtWgt=          12          12          12          12           1          12           1          12           1           1
 AtmWgt=  12.0000000  12.0000000  12.0000000  12.0000000   1.0078250  12.0000000   1.0078250  12.0000000   1.0078250   1.0078250
 NucSpn=           0           0           0           0           1           0           1           0           1           1
 AtZEff=  -0.0000000  -0.0000000  -0.0000000  -0.0000000  -0.0000000  -0.0000000  -0.0000000  -0.0000000  -0.0000000  -0.0000000
 NQMom=    0.0000000   0.0000000   0.0000000   0.0000000   0.0000000   0.0000000   0.0000000   0.0000000   0.0000000   0.0000000
 NMagM=    0.0000000   0.0000000   0.0000000   0.0000000   2.7928460   0.0000000   2.7928460   0.0000000   2.7928460   2.7928460
 AtZNuc=   6.0000000   6.0000000   6.0000000   6.0000000   1.0000000   6.0000000   1.0000000   6.0000000   1.0000000   1.0000000

  Atom        61          62          63          64          65          66          67          68          69
 IAtWgt=           1          12           1           1           1          12           1           1           1
 AtmWgt=   1.0078250  12.0000000   1.0078250   1.0078250   1.0078250  12.0000000   1.0078250   1.0078250   1.0078250
 NucSpn=           1           0           1           1           1           0           1           1           1
 AtZEff=  -0.0000000  -0.0000000  -0.0000000  -0.0000000  -0.0000000  -0.0000000  -0.0000000  -0.0000000  -0.0000000
 NQMom=    0.0000000   0.0000000   0.0000000   0.0000000   0.0000000   0.0000000   0.0000000   0.0000000   0.0000000
 NMagM=    2.7928460   0.0000000   2.7928460   2.7928460   2.7928460   0.0000000   2.7928460   2.7928460   2.7928460
 AtZNuc=   1.0000000   6.0000000   1.0000000   1.0000000   1.0000000   6.0000000   1.0000000   1.0000000   1.0000000
 Leave Link  101 at Tue Mar  4 15:07:49 2025, MaxMem= 82678120448 cpu:               7.3 elap:               0.3
 (Enter /sysapps/ubuntu-applications/gaussian-new/avx/g16/l103.exe)

 GradGradGradGradGradGradGradGradGradGradGradGradGradGradGradGradGradGrad
 Berny optimization.
 Initialization pass.
 Trust Radius=3.00D-01 FncErr=1.00D-07 GrdErr=1.00D-07 EigMax=2.50D+02 EigMin=1.00D-04
 Number of steps in this run=      2 maximum allowed number of steps=      2.
 GradGradGradGradGradGradGradGradGradGradGradGradGradGradGradGradGradGrad

 Leave Link  103 at Tue Mar  4 15:07:50 2025, MaxMem= 82678120448 cpu:               1.4 elap:               0.1
 (Enter /sysapps/ubuntu-applications/gaussian-new/avx/g16/l202.exe)
 Stoichiometry    C23H18F9N4O11S3Sc
 Framework group  C1[X(C23H18F9N4O11S3Sc)]
 Deg. of freedom   201
 Full point group                 C1      NOp   1
 Largest Abelian subgroup         C1      NOp   1
 Largest concise Abelian subgroup C1      NOp   1
                         Standard orientation:                         
 ---------------------------------------------------------------------
 Center     Atomic      Atomic             Coordinates (Angstroms)
 Number     Number       Type             X           Y           Z
 ---------------------------------------------------------------------
      1          6           0        1.974133   -0.910474   -0.808093
      2          6           0        1.472392   -0.462902    0.576650
      3          6           0        0.815167   -1.353806   -1.728865
      4          8           0       -0.302322   -0.856559   -1.619114
      5          8           0        0.488348    0.281736    0.625056
      6          8           0       -3.080756   -1.318468   -0.680974
      7          8           0       -2.168809   -0.233876    1.836840
      8          8           0       -0.607228    2.010211   -1.192818
      9         16           0       -1.562454    2.939204   -0.519296
     10         16           0       -3.724533   -0.558585   -1.803147
     11         16           0       -1.678254   -1.642238    2.039687
     12          8           0       -2.341248    2.054939    0.415623
     13          8           0       -2.288552    3.888198   -1.318860
     14          8           0       -2.840044    0.634930   -1.961099
     15          8           0       -4.119569   -1.286735   -2.977011
     16          8           0       -0.948261   -1.977393    0.786443
     17          8           0       -1.023087   -1.928292    3.291975
     18          6           0       -3.236896   -2.679892    2.023002
     19          6           0       -5.259668    0.094443   -1.022914
     20          6           0       -0.529007    3.915462    0.647323
     21          9           0       -3.133989   -3.607608    1.095021
     22          9           0       -4.287570   -1.920751    1.790495
     23          9           0       -3.362338   -3.251241    3.205357
     24          9           0       -4.936134    0.705487    0.101630
     25          9           0       -6.069226   -0.913811   -0.765371
     26          9           0       -5.844190    0.944145   -1.842658
     27          9           0        0.026712    3.094756    1.517541
     28          9           0       -1.294288    4.783228    1.278504
     29          9           0        0.407682    4.558151   -0.028479
     30          6           0        3.867521    0.833489   -1.063631
     31          6           0        4.848032   -0.362852   -1.153486
     32          6           0        6.216724    0.030492   -0.749324
     33          6           0        4.947971   -0.801474   -2.578942
     34          6           0        2.700784   -3.200248    0.051916
     35          6           0        5.059689   -3.535904    0.348756
     36          6           0        3.676727   -3.956555    0.568697
     37          1           0        1.638784   -3.438895    0.176461
     38          1           0        5.892238   -4.204095    0.585311
     39          1           0        3.472545   -4.860726    1.143916
     40          7           0        7.285399    0.398726   -0.503086
     41          7           0        4.943372   -1.195054   -3.668158
     42          7           0        4.359582   -1.469333   -0.338586
     43          7           0        5.370781   -2.367615   -0.083886
     44          6           0        3.068286   -2.000060   -0.786722
     45          1           0        3.188987   -2.341294   -1.835924
     46          6           0        2.495271    0.359436   -1.555583
     47          1           0        1.745715    1.158147   -1.453033
     48          1           0        2.567860    0.120438   -2.628887
     49         21           0       -1.502065    0.148159   -0.185306
     50          1           0        4.216043    1.574911   -1.800262
     51          6           0        3.840499    1.523268    0.294567
     52          6           0        3.103329    2.715864    0.381045
     53          6           0        4.527809    1.080366    1.433765
     54          6           0        3.063337    3.450616    1.564730
     55          1           0        2.562559    3.078184   -0.498482
     56          6           0        4.486309    1.816241    2.621176
     57          1           0        5.091979    0.146526    1.425159
     58          6           0        3.756760    3.002322    2.692157
     59          1           0        2.490728    4.379110    1.605756
     60          1           0        5.030280    1.451898    3.495296
     61          1           0        3.728612    3.577634    3.620047
     62          6           0        1.059750   -2.313919   -2.842128
     63          1           0        0.160633   -2.361609   -3.466065
     64          1           0        1.931158   -2.013385   -3.445066
     65          1           0        1.274541   -3.313384   -2.429047
     66          6           0        2.063252   -0.912612    1.863530
     67          1           0        3.098091   -1.256114    1.802499
     68          1           0        1.942061   -0.104811    2.598495
     69          1           0        1.423742   -1.753552    2.192766
 ---------------------------------------------------------------------
 Rotational constants (GHZ):           0.0807835           0.0425857           0.0365533
 Leave Link  202 at Tue Mar  4 15:07:50 2025, MaxMem= 82678120448 cpu:               1.1 elap:               0.1
 (Enter /sysapps/ubuntu-applications/gaussian-new/avx/g16/l301.exe)
 General basis read from cards:  (5D, 7F)
 Centers:      37     38     39     45     47     48     50     55     57     59
 Centers:      60     61     63     64     65     67     68     69
 S 3 1.00
     Exponent=  1.3010701000D+01 Coefficients=  1.9682158000D-02
     Exponent=  1.9622572000D+00 Coefficients=  1.3796524000D-01
     Exponent=  4.4453796000D-01 Coefficients=  4.7831935000D-01
 S 1 1.00
     Exponent=  1.2194962000D-01 Coefficients=  1.0000000000D+00
 P 1 1.00
     Exponent=  8.0000000000D-01 Coefficients=  1.0000000000D+00
 ****
 Centers:       1      2      3     18     19     20     30     31     32     33
 Centers:      34     35     36     44     46     51     52     53     54     56
 Centers:      58     62     66
 S 5 1.00
     Exponent=  1.2384016938D+03 Coefficients=  5.4568832082D-03
     Exponent=  1.8629004992D+02 Coefficients=  4.0638409211D-02
     Exponent=  4.2251176346D+01 Coefficients=  1.8025593888D-01
     Exponent=  1.1676557932D+01 Coefficients=  4.6315121755D-01
     Exponent=  3.5930506482D+00 Coefficients=  4.4087173314D-01
 S 1 1.00
     Exponent=  4.0245147363D-01 Coefficients=  1.0000000000D+00
 S 1 1.00
     Exponent=  1.3090182668D-01 Coefficients=  1.0000000000D+00
 P 3 1.00
     Exponent=  9.4680970621D+00 Coefficients=  3.8387871728D-02
     Exponent=  2.0103545142D+00 Coefficients=  2.1117025112D-01
     Exponent=  5.4771004707D-01 Coefficients=  5.1328172114D-01
 P 1 1.00
     Exponent=  1.5268613795D-01 Coefficients=  1.0000000000D+00
 D 1 1.00
     Exponent=  8.0000000000D-01 Coefficients=  1.0000000000D+00
 ****
 Centers:      40     41     42     43
 S 5 1.00
     Exponent=  1.7128415853D+03 Coefficients= -5.3934125305D-03
     Exponent=  2.5764812677D+02 Coefficients= -4.0221581118D-02
     Exponent=  5.8458245853D+01 Coefficients= -1.7931144990D-01
     Exponent=  1.6198367905D+01 Coefficients= -4.6376317823D-01
     Exponent=  5.0052600809D+00 Coefficients= -4.4171422662D-01
 S 1 1.00
     Exponent=  5.8731856571D-01 Coefficients=  1.0000000000D+00
 S 1 1.00
     Exponent=  1.8764592253D-01 Coefficients=  1.0000000000D+00
 P 3 1.00
     Exponent=  1.3571470233D+01 Coefficients= -4.0072398852D-02
     Exponent=  2.9257372874D+00 Coefficients= -2.1807045028D-01
     Exponent=  7.9927750754D-01 Coefficients= -5.1294466049D-01
 P 1 1.00
     Exponent=  2.1954348034D-01 Coefficients=  1.0000000000D+00
 D 1 1.00
     Exponent=  1.0000000000D+00 Coefficients=  1.0000000000D+00
 ****
 Centers:       4      5      6      7      8     12     13     14     15     16
 Centers:      17
 S 5 1.00
     Exponent=  2.2661767785D+03 Coefficients= -5.3431809926D-03
     Exponent=  3.4087010191D+02 Coefficients= -3.9890039230D-02
     Exponent=  7.7363135167D+01 Coefficients= -1.7853911985D-01
     Exponent=  2.1479644940D+01 Coefficients= -4.6427684959D-01
     Exponent=  6.6589433124D+00 Coefficients= -4.4309745172D-01
 S 1 1.00
     Exponent=  8.0975975668D-01 Coefficients=  1.0000000000D+00
 S 1 1.00
     Exponent=  2.5530772234D-01 Coefficients=  1.0000000000D+00
 P 3 1.00
     Exponent=  1.7721504317D+01 Coefficients=  4.3394573193D-02
     Exponent=  3.8635505440D+00 Coefficients=  2.3094120765D-01
     Exponent=  1.0480920883D+00 Coefficients=  5.1375311064D-01
 P 1 1.00
     Exponent=  2.7641544411D-01 Coefficients=  1.0000000000D+00
 D 1 1.00
     Exponent=  1.2000000000D+00 Coefficients=  1.0000000000D+00
 ****
 Centers:      21     22     23     24     25     26     27     28     29
 S 5 1.00
     Exponent=  2.8948325990D+03 Coefficients= -5.3408255515D-03
     Exponent=  4.3541939120D+02 Coefficients= -3.9904258866D-02
     Exponent=  9.8843328866D+01 Coefficients= -1.7912768038D-01
     Exponent=  2.7485198001D+01 Coefficients= -4.6758090825D-01
     Exponent=  8.5405498171D+00 Coefficients= -4.4653131020D-01
 S 1 1.00
     Exponent=  1.0654578038D+00 Coefficients=  1.0000000000D+00
 S 1 1.00
     Exponent=  3.3247346748D-01 Coefficients=  1.0000000000D+00
 P 3 1.00
     Exponent=  2.2696633924D+01 Coefficients= -4.5212874436D-02
     Exponent=  4.9872339257D+00 Coefficients= -2.3754317067D-01
     Exponent=  1.3491613954D+00 Coefficients= -5.1287353587D-01
 P 1 1.00
     Exponent=  3.4829881977D-01 Coefficients=  1.0000000000D+00
 D 1 1.00
     Exponent=  1.4000000000D+00 Coefficients=  1.0000000000D+00
 ****
 Centers:       9     10     11
 S 5 1.00
     Exponent=  9.1849303010D+03 Coefficients= -2.2294387756D-03
     Exponent=  1.3815105503D+03 Coefficients= -1.6683029937D-02
     Exponent=  3.1387147580D+02 Coefficients= -7.5262436116D-02
     Exponent=  8.8053870623D+01 Coefficients= -1.9376827038D-01
     Exponent=  2.7039914905D+01 Coefficients= -1.7718020803D-01
 S 3 1.00
     Exponent=  4.5648731303D+01 Coefficients= -1.0736062573D-01
     Exponent=  4.9664522326D+00 Coefficients=  6.5066293018D-01
     Exponent=  2.0116242047D+00 Coefficients=  5.9712155354D-01
 S 1 1.00
     Exponent=  3.5661077013D-01 Coefficients=  1.0000000000D+00
 S 1 1.00
     Exponent=  1.3507221477D-01 Coefficients=  1.0000000000D+00
 P 5 1.00
     Exponent=  2.6198233439D+02 Coefficients= -9.2729929822D-03
     Exponent=  6.1306894736D+01 Coefficients= -6.6547669241D-02
     Exponent=  1.9103729887D+01 Coefficients= -2.4828595903D-01
     Exponent=  6.6567720378D+00 Coefficients= -4.8703847402D-01
     Exponent=  2.3959635161D+00 Coefficients= -3.9337850312D-01
 P 1 1.00
     Exponent=  6.1776161679D-01 Coefficients=  1.0000000000D+00
 P 1 1.00
     Exponent=  1.6993376871D-01 Coefficients=  1.0000000000D+00
 D 1 1.00
     Exponent=  5.5000000000D-01 Coefficients=  1.0000000000D+00
 ****
 Centers:      49
 S 8 1.00
     Exponent=  1.9161291874D+05 Coefficients=  2.3076475942D-04
     Exponent=  2.8723850363D+04 Coefficients=  1.7890329946D-03
     Exponent=  6.5370116490D+03 Coefficients=  9.2990401140D-03
     Exponent=  1.8503097171D+03 Coefficients=  3.7739438011D-02
     Exponent=  6.0238855156D+02 Coefficients=  1.2227148359D-01
     Exponent=  2.1617324766D+02 Coefficients=  2.8814821470D-01
     Exponent=  8.3712517880D+01 Coefficients=  4.0517543099D-01
     Exponent=  3.2908707189D+01 Coefficients=  2.0566019623D-01
 S 4 1.00
     Exponent=  2.1134393234D+02 Coefficients= -2.4527991462D-02
     Exponent=  6.5128920139D+01 Coefficients= -1.1570158142D-01
     Exponent=  1.0034311535D+01 Coefficients=  5.5995283317D-01
     Exponent=  4.1596884597D+00 Coefficients=  5.6087765073D-01
 S 2 1.00
     Exponent=  6.0009041613D+00 Coefficients= -2.2840494325D-01
     Exponent=  9.8255784150D-01 Coefficients=  7.1948970378D-01
 S 1 1.00
     Exponent=  4.2483192773D-01 Coefficients=  1.0000000000D+00
 S 1 1.00
     Exponent=  7.7185462096D-02 Coefficients=  1.0000000000D+00
 S 1 1.00
     Exponent=  3.0147219702D-02 Coefficients=  1.0000000000D+00
 P 6 1.00
     Exponent=  9.4734122823D+02 Coefficients=  2.4737208744D-03
     Exponent=  2.2409699732D+02 Coefficients=  1.9742967060D-02
     Exponent=  7.1560334882D+01 Coefficients=  9.0357147549D-02
     Exponent=  2.6444824490D+01 Coefficients=  2.5201602503D-01
     Exponent=  1.0393798285D+01 Coefficients=  3.9675535929D-01
     Exponent=  4.1606304559D+00 Coefficients=  2.3208624517D-01
 P 3 1.00
     Exponent=  1.5565737135D+01 Coefficients= -2.7129423974D-02
     Exponent=  2.1121544865D+00 Coefficients=  5.5109256629D-01
     Exponent=  8.4184709021D-01 Coefficients=  1.0090635806D+00
 P 1 1.00
     Exponent=  3.2297542652D-01 Coefficients=  1.0000000000D+00
 P 1 1.00
     Exponent=  8.9748000000D-02 Coefficients=  1.0000000000D+00
 D 4 1.00
     Exponent=  3.0989390993D+01 Coefficients=  1.1902837431D-02
     Exponent=  8.6905465069D+00 Coefficients=  6.7655856850D-02
     Exponent=  2.9520256337D+00 Coefficients=  2.1332539722D-01
     Exponent=  1.0761910745D+00 Coefficients=  3.8391075578D-01
 D 1 1.00
     Exponent=  3.8338915095D-01 Coefficients=  4.3354716259D-01
 D 1 1.00
     Exponent=  1.2534686113D-01 Coefficients=  2.4509263822D-01
 D 1 1.00
     Exponent=  4.1000000000D-02 Coefficients=  1.0000000000D+00
 F 1 1.00
     Exponent=  3.4500000000D-01 Coefficients=  1.0000000000D+00
 ****
 Ernie: Thresh=  0.10000D-02 Tol=  0.10000D-05 Strict=F.
 There are   904 symmetry adapted cartesian basis functions of A   symmetry.
 There are   847 symmetry adapted basis functions of A   symmetry.
   847 basis functions,  1514 primitive gaussians,   904 cartesian basis functions
   211 alpha electrons      211 beta electrons
       nuclear repulsion energy     10076.5583310782 Hartrees.
 IExCor= 7252 DFT=T Ex+Corr=MN15 ExCW=0 ScaHFX=  0.440000
 ScaDFX=  1.000000  1.000000  1.000000  1.000000 ScalE2=  1.000000  1.000000
 IRadAn=      5 IRanWt=     -1 IRanGd=            0 ICorTp=0 IEmpDi=  4
 NAtoms=   69 NActive=   69 NUniq=   69 SFac= 1.00D+00 NAtFMM=   60 NAOKFM=T Big=T
 Integral buffers will be    131072 words long.
 Raffenetti 2 integral format.
 Two-electron integral symmetry is turned on.
 Force inversion solution in PCM.
 ------------------------------------------------------------------------------
 Polarizable Continuum Model (PCM)
 =================================
 Model                : PCM.
 Atomic radii         : SMD-Coulomb.
 Polarization charges : Total charges.
 Charge compensation  : None.
 Solution method      : Matrix inversion.
 Cavity type          : VdW (van der Waals Surface) (Alpha=1.000).
 Cavity algorithm     : GePol (No added spheres)
                        Default sphere list used, NSphG=   69.
                        Lebedev-Laikov grids with approx.  5.0 points / Ang**2.
                        Smoothing algorithm: York/Karplus (Gamma=1.0000).
                        Polarization charges: spherical gaussians, with
                                              point-specific exponents (IZeta= 3).
                        Self-potential: point-specific (ISelfS= 7).
                        Self-field    : sphere-specific E.n sum rule (ISelfD= 2).
 1st derivatives      : Analytical E(r).r(x)/FMM algorithm (CHGder, D1EAlg=3).
                        Cavity 1st derivative terms included.
 2nd derivatives      : Analytical E(r).r(xy)/FMM algorithm (CHGder, D2EAlg=3).
                        Cavity 2nd derivative terms included.
 Solvent              : DiChloroEthane, Eps=  10.125000 Eps(inf)=   2.087447
 ------------------------------------------------------------------------------
 GePol: Number of generator spheres                  =      69
 GePol: Total number of spheres                      =      69
 GePol: Number of exposed spheres                    =      68 ( 98.55%)
 GePol: Number of points                             =    4782
 GePol: Average weight of points                     =       0.13
 GePol: Minimum weight of points                     =   0.43D-10
 GePol: Maximum weight of points                     =    0.21501
 GePol: Number of points with low weight             =     257
 GePol: Fraction of low-weight points (<1% of avg)   =       5.37%
 GePol: Cavity surface area                          =    605.944 Ang**2
 GePol: Cavity volume                                =    733.170 Ang**3
 ------------------------------------------------------------------------------
 Atomic radii for non-electrostatic terms: SMD-CDS.
 ------------------------------------------------------------------------------
 PCM non-electrostatic energy =         0.0044784037 Hartrees.
 Nuclear repulsion after PCM non-electrostatic terms =    10076.5628094819 Hartrees.
 Leave Link  301 at Tue Mar  4 15:07:50 2025, MaxMem= 82678120448 cpu:               6.8 elap:               0.3
 (Enter /sysapps/ubuntu-applications/gaussian-new/avx/g16/l302.exe)
 NPDir=0 NMtPBC=     1 NCelOv=     1 NCel=       1 NClECP=     1 NCelD=      1
         NCelK=      1 NCelE2=     1 NClLst=     1 CellRange=     0.0.
 One-electron integrals computed using PRISM.
 One-electron integral symmetry used in STVInt
 NBasis=   847 RedAO= T EigKep=  1.95D-04  NBF=   847
 NBsUse=   847 1.00D-06 EigRej= -1.00D+00 NBFU=   847
 Precomputing XC quadrature grid using
 IXCGrd= 4 IRadAn=           5 IRanWt=          -1 IRanGd=           0 AccXCQ= 0.00D+00.
 Generated NRdTot=       0 NPtTot=           0 NUsed=           0 NTot=          32
 NSgBfM=   866   858   858   865   866 MxSgAt=    69 MxSgA2=    69.
 Leave Link  302 at Tue Mar  4 15:07:53 2025, MaxMem= 82678120448 cpu:              60.9 elap:               2.6
 (Enter /sysapps/ubuntu-applications/gaussian-new/avx/g16/l303.exe)
 DipDrv:  MaxL=1.
 Leave Link  303 at Tue Mar  4 15:07:53 2025, MaxMem= 82678120448 cpu:               6.9 elap:               0.3
 (Enter /sysapps/ubuntu-applications/gaussian-new/avx/g16/l401.exe)
 ExpMin= 3.01D-02 ExpMax= 1.92D+05 ExpMxC= 1.85D+03 IAcc=3 IRadAn=         5 AccDes= 0.00D+00
 Harris functional with IExCor= 1009 and IRadAn=       5 diagonalized for initial guess.
 HarFok:  IExCor= 1009 AccDes= 0.00D+00 IRadAn=         5 IDoV= 1 UseB2=F ITyADJ=14
 ICtDFT=  3500011 ScaDFX=  1.000000  1.000000  1.000000  1.000000
 FoFCou: FMM=F IPFlag=           0 FMFlag=      100000 FMFlg1=        2001
         NFxFlg=           0 DoJE=T BraDBF=F KetDBF=T FulRan=T
         wScrn=  0.000000 ICntrl=       500 IOpCl=  0 I1Cent=   200000004 NGrid=           0
         NMat0=    1 NMatS0=      1 NMatT0=    0 NMatD0=    1 NMtDS0=    0 NMtDT0=    0
 Petite list used in FoFCou.
 Harris En= -4781.86572679180    
 JPrj=0 DoOrth=F DoCkMO=F.
 Leave Link  401 at Tue Mar  4 15:08:02 2025, MaxMem= 82678120448 cpu:             224.2 elap:               9.4
 (Enter /sysapps/ubuntu-applications/gaussian-new/avx/g16/l502.exe)
 Integral symmetry usage will be decided dynamically.
 Closed shell SCF:
 Using DIIS extrapolation, IDIIS=  1040.
 NGot= 82678120448 LenX= 82676454397 LenY= 82675636277
 Requested convergence on RMS density matrix=1.00D-08 within 500 cycles.
 Requested convergence on MAX density matrix=1.00D-06.
 Requested convergence on             energy=1.00D-06.
 No special actions if energy rises.
 Fock matrices will be formed incrementally for  20 cycles.

 Cycle   1  Pass 1  IDiag  1:
 FoFJK:  IHMeth= 1 ICntrl=       0 DoSepK=F KAlg= 0 I1Cent=           0 FoldK=F
 IRaf= 870000000 NMat=       1 IRICut=       1 DoRegI=T DoRafI=F ISym2E= 0 IDoP0=0 IntGTp=1.
 FoFCou: FMM=T IPFlag=           0 FMFlag=      100000 FMFlg1=        2001
         NFxFlg=           0 DoJE=F BraDBF=F KetDBF=F FulRan=T
         wScrn=  0.000000 ICntrl=         0 IOpCl=  0 I1Cent=           0 NGrid=           0
         NMat0=    1 NMatS0=      1 NMatT0=    0 NMatD0=    1 NMtDS0=    0 NMtDT0=    0
 Symmetry not used in FoFCou.
 FMM levels:  10  Number of levels for PrismC:   9
 Inv3:  Mode=1 IEnd=    68602572.
 Iteration    1 A*A^-1 deviation from unit magnitude is 9.66D-15 for   4781.
 Iteration    1 A*A^-1 deviation from orthogonality  is 6.03D-15 for   4760   4072.
 Iteration    1 A^-1*A deviation from unit magnitude is 9.44D-15 for   4781.
 Iteration    1 A^-1*A deviation from orthogonality  is 7.09D-14 for   2810   2778.
 E= -4780.26790574757    
 DIIS: error= 2.34D-02 at cycle   1 NSaved=   1.
 NSaved= 1 IEnMin= 1 EnMin= -4780.26790574757     IErMin= 1 ErrMin= 2.34D-02
 ErrMax= 2.34D-02  0.00D+00 EMaxC= 1.00D-01 BMatC= 1.91D+00 BMatP= 1.91D+00
 IDIUse=3 WtCom= 7.66D-01 WtEn= 2.34D-01
 Coeff-Com:  0.100D+01
 Coeff-En:   0.100D+01
 Coeff:      0.100D+01
 Gap=     0.249 Goal=   None    Shift=    0.000
 GapD=    0.249 DampG=1.000 DampE=0.250 DampFc=0.2500 IDamp=-1.
 Damping current iteration by 2.50D-01
 RMSDP=3.71D-03 MaxDP=3.85D-01              OVMax= 2.68D-01

 Cycle   2  Pass 1  IDiag  1:
 RMSU=  9.26D-04    CP:  9.98D-01
 E= -4780.78160594399     Delta-E=       -0.513700196418 Rises=F Damp=T
 DIIS: error= 1.02D-02 at cycle   2 NSaved=   2.
 NSaved= 2 IEnMin= 2 EnMin= -4780.78160594399     IErMin= 2 ErrMin= 1.02D-02
 ErrMax= 1.02D-02  0.00D+00 EMaxC= 1.00D-01 BMatC= 3.41D-01 BMatP= 1.91D+00
 IDIUse=3 WtCom= 8.98D-01 WtEn= 1.02D-01
 Coeff-Com: -0.591D+00 0.159D+01
 Coeff-En:   0.000D+00 0.100D+01
 Coeff:     -0.531D+00 0.153D+01
 Gap=     0.255 Goal=   None    Shift=    0.000
 RMSDP=1.01D-03 MaxDP=8.79D-02 DE=-5.14D-01 OVMax= 1.73D-01

 Cycle   3  Pass 1  IDiag  1:
 RMSU=  8.14D-04    CP:  9.92D-01  1.65D+00
 E= -4781.66853456956     Delta-E=       -0.886928625570 Rises=F Damp=F
 DIIS: error= 6.27D-03 at cycle   3 NSaved=   3.
 NSaved= 3 IEnMin= 3 EnMin= -4781.66853456956     IErMin= 3 ErrMin= 6.27D-03
 ErrMax= 6.27D-03  0.00D+00 EMaxC= 1.00D-01 BMatC= 5.26D-02 BMatP= 3.41D-01
 IDIUse=3 WtCom= 9.37D-01 WtEn= 6.27D-02
 Coeff-Com: -0.297D+00 0.685D+00 0.612D+00
 Coeff-En:   0.000D+00 0.000D+00 0.100D+01
 Coeff:     -0.278D+00 0.642D+00 0.636D+00
 Gap=     0.207 Goal=   None    Shift=    0.000
 RMSDP=4.06D-04 MaxDP=3.37D-02 DE=-8.87D-01 OVMax= 4.44D-02

 Cycle   4  Pass 1  IDiag  1:
 RMSU=  3.35D-04    CP:  9.95D-01  1.73D+00  7.39D-01
 E= -4781.70258184872     Delta-E=       -0.034047279159 Rises=F Damp=F
 DIIS: error= 3.80D-03 at cycle   4 NSaved=   4.
 NSaved= 4 IEnMin= 4 EnMin= -4781.70258184872     IErMin= 4 ErrMin= 3.80D-03
 ErrMax= 3.80D-03  0.00D+00 EMaxC= 1.00D-01 BMatC= 1.79D-02 BMatP= 5.26D-02
 IDIUse=3 WtCom= 9.62D-01 WtEn= 3.80D-02
 Coeff-Com: -0.115D+00 0.221D+00 0.388D+00 0.507D+00
 Coeff-En:   0.000D+00 0.000D+00 0.223D+00 0.777D+00
 Coeff:     -0.111D+00 0.213D+00 0.381D+00 0.517D+00
 Gap=     0.203 Goal=   None    Shift=    0.000
 RMSDP=1.94D-04 MaxDP=1.75D-02 DE=-3.40D-02 OVMax= 2.38D-02

 Cycle   5  Pass 1  IDiag  1:
 RMSU=  1.27D-04    CP:  9.94D-01  1.69D+00  8.04D-01  6.03D-01
 E= -4781.71578474505     Delta-E=       -0.013202896334 Rises=F Damp=F
 DIIS: error= 1.18D-03 at cycle   5 NSaved=   5.
 NSaved= 5 IEnMin= 5 EnMin= -4781.71578474505     IErMin= 5 ErrMin= 1.18D-03
 ErrMax= 1.18D-03  0.00D+00 EMaxC= 1.00D-01 BMatC= 2.27D-03 BMatP= 1.79D-02
 IDIUse=3 WtCom= 9.88D-01 WtEn= 1.18D-02
 Coeff-Com: -0.329D-01 0.432D-01 0.132D+00 0.301D+00 0.557D+00
 Coeff-En:   0.000D+00 0.000D+00 0.000D+00 0.833D-01 0.917D+00
 Coeff:     -0.326D-01 0.427D-01 0.131D+00 0.298D+00 0.561D+00
 Gap=     0.204 Goal=   None    Shift=    0.000
 RMSDP=5.95D-05 MaxDP=5.93D-03 DE=-1.32D-02 OVMax= 8.39D-03

 Cycle   6  Pass 1  IDiag  1:
 RMSU=  3.94D-05    CP:  9.94D-01  1.71D+00  8.10D-01  6.45D-01  7.06D-01
 E= -4781.71771738663     Delta-E=       -0.001932641579 Rises=F Damp=F
 DIIS: error= 2.80D-04 at cycle   6 NSaved=   6.
 NSaved= 6 IEnMin= 6 EnMin= -4781.71771738663     IErMin= 6 ErrMin= 2.80D-04
 ErrMax= 2.80D-04  0.00D+00 EMaxC= 1.00D-01 BMatC= 1.29D-04 BMatP= 2.27D-03
 IDIUse=3 WtCom= 9.97D-01 WtEn= 2.80D-03
 Coeff-Com: -0.667D-02 0.265D-02 0.271D-01 0.858D-01 0.262D+00 0.629D+00
 Coeff-En:   0.000D+00 0.000D+00 0.000D+00 0.000D+00 0.000D+00 0.100D+01
 Coeff:     -0.665D-02 0.264D-02 0.271D-01 0.855D-01 0.261D+00 0.630D+00
 Gap=     0.204 Goal=   None    Shift=    0.000
 RMSDP=1.84D-05 MaxDP=1.51D-03 DE=-1.93D-03 OVMax= 1.79D-03

 Cycle   7  Pass 1  IDiag  1:
 RMSU=  1.35D-05    CP:  9.94D-01  1.71D+00  8.15D-01  6.54D-01  7.55D-01
                    CP:  7.59D-01
 E= -4781.71781044340     Delta-E=       -0.000093056768 Rises=F Damp=F
 DIIS: error= 9.52D-05 at cycle   7 NSaved=   7.
 NSaved= 7 IEnMin= 7 EnMin= -4781.71781044340     IErMin= 7 ErrMin= 9.52D-05
 ErrMax= 9.52D-05  0.00D+00 EMaxC= 1.00D-01 BMatC= 2.74D-05 BMatP= 1.29D-04
 IDIUse=1 WtCom= 1.00D+00 WtEn= 0.00D+00
 Coeff-Com: -0.481D-03-0.284D-02 0.433D-03 0.139D-01 0.913D-01 0.378D+00
 Coeff-Com:  0.520D+00
 Coeff:     -0.481D-03-0.284D-02 0.433D-03 0.139D-01 0.913D-01 0.378D+00
 Coeff:      0.520D+00
 Gap=     0.204 Goal=   None    Shift=    0.000
 RMSDP=6.90D-06 MaxDP=7.57D-04 DE=-9.31D-05 OVMax= 1.29D-03

 Cycle   8  Pass 1  IDiag  1:
 RMSU=  5.34D-06    CP:  9.94D-01  1.71D+00  8.16D-01  6.55D-01  7.68D-01
                    CP:  8.26D-01  7.78D-01
 E= -4781.71783189563     Delta-E=       -0.000021452226 Rises=F Damp=F
 DIIS: error= 2.41D-05 at cycle   8 NSaved=   8.
 NSaved= 8 IEnMin= 8 EnMin= -4781.71783189563     IErMin= 8 ErrMin= 2.41D-05
 ErrMax= 2.41D-05  0.00D+00 EMaxC= 1.00D-01 BMatC= 1.56D-06 BMatP= 2.74D-05
 IDIUse=1 WtCom= 1.00D+00 WtEn= 0.00D+00
 Coeff-Com:  0.726D-03-0.128D-02-0.392D-02-0.863D-02-0.392D-02 0.509D-01
 Coeff-Com:  0.212D+00 0.754D+00
 Coeff:      0.726D-03-0.128D-02-0.392D-02-0.863D-02-0.392D-02 0.509D-01
 Coeff:      0.212D+00 0.754D+00
 Gap=     0.204 Goal=   None    Shift=    0.000
 RMSDP=2.51D-06 MaxDP=1.77D-04 DE=-2.15D-05 OVMax= 6.13D-04

 Cycle   9  Pass 1  IDiag  1:
 RMSU=  1.91D-06    CP:  9.94D-01  1.71D+00  8.16D-01  6.55D-01  7.73D-01
                    CP:  8.50D-01  8.62D-01  9.53D-01
 E= -4781.71783361748     Delta-E=       -0.000001721857 Rises=F Damp=F
 DIIS: error= 5.96D-06 at cycle   9 NSaved=   9.
 NSaved= 9 IEnMin= 9 EnMin= -4781.71783361748     IErMin= 9 ErrMin= 5.96D-06
 ErrMax= 5.96D-06  0.00D+00 EMaxC= 1.00D-01 BMatC= 2.22D-07 BMatP= 1.56D-06
 IDIUse=1 WtCom= 1.00D+00 WtEn= 0.00D+00
 Coeff-Com:  0.439D-03-0.439D-03-0.175D-02-0.526D-02-0.962D-02-0.143D-01
 Coeff-Com:  0.452D-01 0.338D+00 0.647D+00
 Coeff:      0.439D-03-0.439D-03-0.175D-02-0.526D-02-0.962D-02-0.143D-01
 Coeff:      0.452D-01 0.338D+00 0.647D+00
 Gap=     0.204 Goal=   None    Shift=    0.000
 RMSDP=1.04D-06 MaxDP=1.01D-04 DE=-1.72D-06 OVMax= 2.38D-04

 Cycle  10  Pass 1  IDiag  1:
 RMSU=  6.96D-07    CP:  9.94D-01  1.71D+00  8.16D-01  6.55D-01  7.75D-01
                    CP:  8.59D-01  8.87D-01  1.04D+00  9.32D-01
 E= -4781.71783386961     Delta-E=       -0.000000252126 Rises=F Damp=F
 DIIS: error= 3.69D-06 at cycle  10 NSaved=  10.
 NSaved=10 IEnMin=10 EnMin= -4781.71783386961     IErMin=10 ErrMin= 3.69D-06
 ErrMax= 3.69D-06  0.00D+00 EMaxC= 1.00D-01 BMatC= 3.12D-08 BMatP= 2.22D-07
 IDIUse=1 WtCom= 1.00D+00 WtEn= 0.00D+00
 Coeff-Com:  0.116D-03-0.490D-04-0.149D-03-0.107D-02-0.336D-02-0.139D-01
 Coeff-Com: -0.843D-02 0.432D-01 0.275D+00 0.709D+00
 Coeff:      0.116D-03-0.490D-04-0.149D-03-0.107D-02-0.336D-02-0.139D-01
 Coeff:     -0.843D-02 0.432D-01 0.275D+00 0.709D+00
 Gap=     0.204 Goal=   None    Shift=    0.000
 RMSDP=4.58D-07 MaxDP=2.70D-05 DE=-2.52D-07 OVMax= 1.38D-04

 Cycle  11  Pass 1  IDiag  1:
 RMSU=  2.92D-07    CP:  9.94D-01  1.71D+00  8.16D-01  6.55D-01  7.75D-01
                    CP:  8.60D-01  9.02D-01  1.08D+00  1.02D+00  9.76D-01
 E= -4781.71783390961     Delta-E=       -0.000000040000 Rises=F Damp=F
 DIIS: error= 2.39D-06 at cycle  11 NSaved=  11.
 NSaved=11 IEnMin=11 EnMin= -4781.71783390961     IErMin=11 ErrMin= 2.39D-06
 ErrMax= 2.39D-06  0.00D+00 EMaxC= 1.00D-01 BMatC= 1.01D-08 BMatP= 3.12D-08
 IDIUse=1 WtCom= 1.00D+00 WtEn= 0.00D+00
 Coeff-Com: -0.422D-05 0.393D-04 0.266D-03 0.403D-03-0.147D-03-0.566D-02
 Coeff-Com: -0.134D-01-0.425D-01 0.212D-01 0.406D+00 0.633D+00
 Coeff:     -0.422D-05 0.393D-04 0.266D-03 0.403D-03-0.147D-03-0.566D-02
 Coeff:     -0.134D-01-0.425D-01 0.212D-01 0.406D+00 0.633D+00
 Gap=     0.204 Goal=   None    Shift=    0.000
 RMSDP=2.14D-07 MaxDP=1.17D-05 DE=-4.00D-08 OVMax= 6.46D-05

 Cycle  12  Pass 1  IDiag  1:
 RMSU=  1.17D-07    CP:  9.94D-01  1.71D+00  8.16D-01  6.55D-01  7.76D-01
                    CP:  8.60D-01  9.07D-01  1.10D+00  1.07D+00  1.10D+00
                    CP:  9.52D-01
 E= -4781.71783392074     Delta-E=       -0.000000011127 Rises=F Damp=F
 DIIS: error= 7.01D-07 at cycle  12 NSaved=  12.
 NSaved=12 IEnMin=12 EnMin= -4781.71783392074     IErMin=12 ErrMin= 7.01D-07
 ErrMax= 7.01D-07  0.00D+00 EMaxC= 1.00D-01 BMatC= 9.26D-10 BMatP= 1.01D-08
 IDIUse=1 WtCom= 1.00D+00 WtEn= 0.00D+00
 Coeff-Com: -0.139D-04 0.162D-04 0.146D-03 0.364D-03 0.455D-03-0.277D-03
 Coeff-Com: -0.447D-02-0.275D-01-0.377D-01 0.678D-01 0.279D+00 0.722D+00
 Coeff:     -0.139D-04 0.162D-04 0.146D-03 0.364D-03 0.455D-03-0.277D-03
 Coeff:     -0.447D-02-0.275D-01-0.377D-01 0.678D-01 0.279D+00 0.722D+00
 Gap=     0.204 Goal=   None    Shift=    0.000
 RMSDP=8.15D-08 MaxDP=4.56D-06 DE=-1.11D-08 OVMax= 2.61D-05

 Cycle  13  Pass 1  IDiag  1:
 RMSU=  4.07D-08    CP:  9.94D-01  1.71D+00  8.16D-01  6.55D-01  7.76D-01
                    CP:  8.61D-01  9.09D-01  1.10D+00  1.09D+00  1.16D+00
                    CP:  1.05D+00  9.42D-01
 E= -4781.71783392177     Delta-E=       -0.000000001035 Rises=F Damp=F
 DIIS: error= 1.52D-07 at cycle  13 NSaved=  13.
 NSaved=13 IEnMin=13 EnMin= -4781.71783392177     IErMin=13 ErrMin= 1.52D-07
 ErrMax= 1.52D-07  0.00D+00 EMaxC= 1.00D-01 BMatC= 1.05D-10 BMatP= 9.26D-10
 IDIUse=1 WtCom= 1.00D+00 WtEn= 0.00D+00
 Coeff-Com: -0.310D-05-0.476D-06 0.317D-04 0.107D-03 0.193D-03 0.475D-03
 Coeff-Com: -0.276D-03-0.688D-02-0.161D-01-0.126D-01 0.488D-01 0.307D+00
 Coeff-Com:  0.679D+00
 Coeff:     -0.310D-05-0.476D-06 0.317D-04 0.107D-03 0.193D-03 0.475D-03
 Coeff:     -0.276D-03-0.688D-02-0.161D-01-0.126D-01 0.488D-01 0.307D+00
 Coeff:      0.679D+00
 Gap=     0.204 Goal=   None    Shift=    0.000
 RMSDP=2.11D-08 MaxDP=1.13D-06 DE=-1.04D-09 OVMax= 6.21D-06

 Cycle  14  Pass 1  IDiag  1:
 RMSU=  1.34D-08    CP:  9.94D-01  1.71D+00  8.16D-01  6.55D-01  7.76D-01
                    CP:  8.61D-01  9.10D-01  1.10D+00  1.09D+00  1.17D+00
                    CP:  1.08D+00  1.00D+00  9.50D-01
 E= -4781.71783392183     Delta-E=       -0.000000000060 Rises=F Damp=F
 DIIS: error= 6.34D-08 at cycle  14 NSaved=  14.
 NSaved=14 IEnMin=14 EnMin= -4781.71783392183     IErMin=14 ErrMin= 6.34D-08
 ErrMax= 6.34D-08  0.00D+00 EMaxC= 1.00D-01 BMatC= 1.69D-11 BMatP= 1.05D-10
 IDIUse=1 WtCom= 1.00D+00 WtEn= 0.00D+00
 Coeff-Com:  0.371D-06-0.205D-05-0.721D-05-0.363D-05 0.213D-04 0.276D-03
 Coeff-Com:  0.614D-03 0.831D-03-0.164D-02-0.176D-01-0.227D-01 0.288D-01
 Coeff-Com:  0.307D+00 0.705D+00
 Coeff:      0.371D-06-0.205D-05-0.721D-05-0.363D-05 0.213D-04 0.276D-03
 Coeff:      0.614D-03 0.831D-03-0.164D-02-0.176D-01-0.227D-01 0.288D-01
 Coeff:      0.307D+00 0.705D+00
 Gap=     0.204 Goal=   None    Shift=    0.000
 RMSDP=1.02D-08 MaxDP=5.05D-07 DE=-6.00D-11 OVMax= 1.94D-06

 Cycle  15  Pass 1  IDiag  1:
 RMSU=  5.96D-09    CP:  9.94D-01  1.71D+00  8.16D-01  6.55D-01  7.76D-01
                    CP:  8.61D-01  9.10D-01  1.10D+00  1.09D+00  1.17D+00
                    CP:  1.10D+00  1.04D+00  1.04D+00  9.13D-01
 E= -4781.71783392181     Delta-E=        0.000000000022 Rises=F Damp=F
 DIIS: error= 3.66D-08 at cycle  15 NSaved=  15.
 NSaved=15 IEnMin=14 EnMin= -4781.71783392183     IErMin=15 ErrMin= 3.66D-08
 ErrMax= 3.66D-08  0.00D+00 EMaxC= 1.00D-01 BMatC= 2.65D-12 BMatP= 1.69D-11
 IDIUse=1 WtCom= 1.00D+00 WtEn= 0.00D+00
 Coeff-Com:  0.425D-06-0.710D-06-0.721D-05-0.143D-04-0.136D-04 0.646D-04
 Coeff-Com:  0.331D-03 0.121D-02 0.141D-02-0.609D-02-0.161D-01-0.259D-01
 Coeff-Com:  0.562D-01 0.338D+00 0.651D+00
 Coeff:      0.425D-06-0.710D-06-0.721D-05-0.143D-04-0.136D-04 0.646D-04
 Coeff:      0.331D-03 0.121D-02 0.141D-02-0.609D-02-0.161D-01-0.259D-01
 Coeff:      0.562D-01 0.338D+00 0.651D+00
 Gap=     0.204 Goal=   None    Shift=    0.000
 RMSDP=3.08D-09 MaxDP=2.32D-07 DE= 2.18D-11 OVMax= 6.20D-07

 Error on total polarization charges =  0.03237
 SCF Done:  E(RMN15) =  -4781.71783392     A.U. after   15 cycles
            NFock= 15  Conv=0.31D-08     -V/T= 2.0064
 KE= 4.751169469426D+03 PE=-3.142289904337D+04 EE= 1.181344893054D+04
 SMD-CDS (non-electrostatic) energy       (kcal/mol) =       2.81
 (included in total energy above)
 Leave Link  502 at Tue Mar  4 15:21:40 2025, MaxMem= 82678120448 cpu:           19501.0 elap:             817.4
 (Enter /sysapps/ubuntu-applications/gaussian-new/avx/g16/l801.exe)
 DoSCS=F DFT=T ScalE2(SS,OS)=  1.000000  1.000000
 Range of M.O.s used for correlation:     1   847
 NBasis=   847 NAE=   211 NBE=   211 NFC=     0 NFV=     0
 NROrb=    847 NOA=   211 NOB=   211 NVA=   636 NVB=   636

 **** Warning!!: The largest alpha MO coefficient is  0.10554215D+02

 Leave Link  801 at Tue Mar  4 15:21:40 2025, MaxMem= 82678120448 cpu:               1.9 elap:               0.1
 (Enter /sysapps/ubuntu-applications/gaussian-new/avx/g16/l1101.exe)
 Using compressed storage, NAtomX=    69.
 Will process     70 centers per pass.
 Leave Link 1101 at Tue Mar  4 15:21:47 2025, MaxMem= 82678120448 cpu:             177.9 elap:               7.4
 (Enter /sysapps/ubuntu-applications/gaussian-new/avx/g16/l1102.exe)
 Symmetrizing basis deriv contribution to polar:
 IMax=3 JMax=2 DiffMx= 0.00D+00
 Leave Link 1102 at Tue Mar  4 15:21:48 2025, MaxMem= 82678120448 cpu:               7.1 elap:               0.4
 (Enter /sysapps/ubuntu-applications/gaussian-new/avx/g16/l1110.exe)
 Forming Gx(P) for the SCF density, NAtomX=    69.
 Integral derivatives from FoFJK, PRISM(SPDF).
 Do as many integral derivatives as possible in FoFJK.
 G2DrvN: MDV=   82678114378.
 G2DrvN: will do    70 centers at a time, making    1 passes.
 Calling FoFCou, ICntrl=  3107 FMM=T I1Cent=   0 AccDes= 0.00D+00.
 FoFJK:  IHMeth= 1 ICntrl=    3107 DoSepK=F KAlg= 0 I1Cent=           0 FoldK=F
 IRaf=         0 NMat=       1 IRICut=       1 DoRegI=T DoRafI=F ISym2E= 0 IDoP0=0 IntGTp=1.
 FoFCou: FMM=T IPFlag=           0 FMFlag=      100000 FMFlg1=        2001
         NFxFlg=           0 DoJE=F BraDBF=F KetDBF=F FulRan=T
         wScrn=  0.000000 ICntrl=      3107 IOpCl=  0 I1Cent=           0 NGrid=           0
         NMat0=    1 NMatS0=      1 NMatT0=    0 NMatD0=    1 NMtDS0=    0 NMtDT0=    0
 Symmetry not used in FoFCou.
 FMM levels:  10  Number of levels for PrismC:   9
 NEqPCM:  Using equilibrium solvation (IEInf=0, Eps=  10.1250, EpsInf=   2.0874)
 G2PCM: DoFxE=T DoFxN=T DoGrad=T DoDP/DQ/DG/TGxP=FFFF NFrqRd=   0 IEInf=0 SqF1=F DoCFld=F IF1Alg=4.
 GePol: Maximum number of non-zero 1st derivatives   =     263
 End of G2Drv F.D. properties file   721 does not exist.
 End of G2Drv F.D. properties file   722 does not exist.
 End of G2Drv F.D. properties file   788 does not exist.
 Leave Link 1110 at Tue Mar  4 16:08:04 2025, MaxMem= 82678120448 cpu:           66617.6 elap:            2775.9
 (Enter /sysapps/ubuntu-applications/gaussian-new/avx/g16/l1002.exe)
 Minotr:  Closed shell wavefunction.
          IDoAtm=11111111111111111111111111111111111111111111111111
          IDoAtm=1111111111111111111
 NEqPCM:  Using equilibrium solvation (IEInf=0, Eps=  10.1250, EpsInf=   2.0874)
          Direct CPHF calculation.
          Differentiating once with respect to electric field.
                with respect to dipole field.
          Differentiating once with respect to nuclear coordinates.
          Requested convergence is 1.0D-08 RMS, and 1.0D-07 maximum.
          Secondary convergence is 1.0D-12 RMS, and 1.0D-12 maximum.
          NewPWx=T KeepS1=F KeepF1=F KeepIn=T MapXYZ=F SortEE=F KeepMc=T.
        21277 words used for storage of precomputed grid.
 Two-electron integrals replicated using symmetry.
          MDV=   82678120448 using IRadAn=       1.
          Solving linear equations simultaneously, MaxMat=      72.
 FoF2E skips out because all densities are zero.
 CalDSu exits because no D1Ps are significant.
 FoFJK:  IHMeth= 1 ICntrl=       0 DoSepK=F KAlg= 0 I1Cent=           0 FoldK=F
 IRaf= 810000000 NMat=      72 IRICut=       1 DoRegI=T DoRafI=F ISym2E= 2 IDoP0=3 IntGTp=3.
          There are   210 degrees of freedom in the 1st order CPHF.  IDoFFX=6 NUNeed=     3.
    210 vectors produced by pass  0 Test12= 1.34D-13 1.00D-09 XBig12= 2.19D+02 3.47D+00.
 AX will form    72 AO Fock derivatives at one time.
    207 vectors produced by pass  1 Test12= 1.34D-13 1.00D-09 XBig12= 4.21D+01 6.53D-01.
    207 vectors produced by pass  2 Test12= 1.34D-13 1.00D-09 XBig12= 1.44D+00 8.78D-02.
    207 vectors produced by pass  3 Test12= 1.34D-13 1.00D-09 XBig12= 2.16D-02 1.24D-02.
    207 vectors produced by pass  4 Test12= 1.34D-13 1.00D-09 XBig12= 1.76D-04 9.77D-04.
    207 vectors produced by pass  5 Test12= 1.34D-13 1.00D-09 XBig12= 8.29D-07 4.85D-05.
    166 vectors produced by pass  6 Test12= 1.34D-13 1.00D-09 XBig12= 3.11D-09 3.57D-06.
     48 vectors produced by pass  7 Test12= 1.34D-13 1.00D-09 XBig12= 1.07D-11 2.11D-07.
      3 vectors produced by pass  8 Test12= 1.34D-13 1.00D-09 XBig12= 3.51D-14 1.47D-08.
      1 vectors produced by pass  9 Test12= 1.34D-13 1.00D-09 XBig12= 4.40D-16 1.08D-09.
 InvSVY:  IOpt=1 It=  1 EMax= 1.07D-14
 Solved reduced A of dimension  1463 with   210 vectors.
 FullF1:  Do perturbations      1 to       3.
 Isotropic polarizability for W=    0.000000      458.00 Bohr**3.
 End of Minotr F.D. properties file   721 does not exist.
 End of Minotr F.D. properties file   722 does not exist.
 End of Minotr F.D. properties file   788 does not exist.
 Leave Link 1002 at Tue Mar  4 18:11:07 2025, MaxMem= 82678120448 cpu:          177132.2 elap:            7382.2
 (Enter /sysapps/ubuntu-applications/gaussian-new/avx/g16/l601.exe)
 Copying SCF densities to generalized density rwf, IOpCl= 0 IROHF=0.

 **********************************************************************

            Population analysis using the SCF density.

 **********************************************************************

 Orbital symmetries:
       Occupied  (A) (A) (A) (A) (A) (A) (A) (A) (A) (A) (A) (A)
                 (A) (A) (A) (A) (A) (A) (A) (A) (A) (A) (A) (A)
                 (A) (A) (A) (A) (A) (A) (A) (A) (A) (A) (A) (A)
                 (A) (A) (A) (A) (A) (A) (A) (A) (A) (A) (A) (A)
                 (A) (A) (A) (A) (A) (A) (A) (A) (A) (A) (A) (A)
                 (A) (A) (A) (A) (A) (A) (A) (A) (A) (A) (A) (A)
                 (A) (A) (A) (A) (A) (A) (A) (A) (A) (A) (A) (A)
                 (A) (A) (A) (A) (A) (A) (A) (A) (A) (A) (A) (A)
                 (A) (A) (A) (A) (A) (A) (A) (A) (A) (A) (A) (A)
                 (A) (A) (A) (A) (A) (A) (A) (A) (A) (A) (A) (A)
                 (A) (A) (A) (A) (A) (A) (A) (A) (A) (A) (A) (A)
                 (A) (A) (A) (A) (A) (A) (A) (A) (A) (A) (A) (A)
                 (A) (A) (A) (A) (A) (A) (A) (A) (A) (A) (A) (A)
                 (A) (A) (A) (A) (A) (A) (A) (A) (A) (A) (A) (A)
                 (A) (A) (A) (A) (A) (A) (A) (A) (A) (A) (A) (A)
                 (A) (A) (A) (A) (A) (A) (A) (A) (A) (A) (A) (A)
                 (A) (A) (A) (A) (A) (A) (A) (A) (A) (A) (A) (A)
                 (A) (A) (A) (A) (A) (A) (A)
       Virtual   (A) (A) (A) (A) (A) (A) (A) (A) (A) (A) (A) (A)
                 (A) (A) (A) (A) (A) (A) (A) (A) (A) (A) (A) (A)
                 (A) (A) (A) (A) (A) (A) (A) (A) (A) (A) (A) (A)
                 (A) (A) (A) (A) (A) (A) (A) (A) (A) (A) (A) (A)
                 (A) (A) (A) (A) (A) (A) (A) (A) (A) (A) (A) (A)
                 (A) (A) (A) (A) (A) (A) (A) (A) (A) (A) (A) (A)
                 (A) (A) (A) (A) (A) (A) (A) (A) (A) (A) (A) (A)
                 (A) (A) (A) (A) (A) (A) (A) (A) (A) (A) (A) (A)
                 (A) (A) (A) (A) (A) (A) (A) (A) (A) (A) (A) (A)
                 (A) (A) (A) (A) (A) (A) (A) (A) (A) (A) (A) (A)
                 (A) (A) (A) (A) (A) (A) (A) (A) (A) (A) (A) (A)
                 (A) (A) (A) (A) (A) (A) (A) (A) (A) (A) (A) (A)
                 (A) (A) (A) (A) (A) (A) (A) (A) (A) (A) (A) (A)
                 (A) (A) (A) (A) (A) (A) (A) (A) (A) (A) (A) (A)
                 (A) (A) (A) (A) (A) (A) (A) (A) (A) (A) (A) (A)
                 (A) (A) (A) (A) (A) (A) (A) (A) (A) (A) (A) (A)
                 (A) (A) (A) (A) (A) (A) (A) (A) (A) (A) (A) (A)
                 (A) (A) (A) (A) (A) (A) (A) (A) (A) (A) (A) (A)
                 (A) (A) (A) (A) (A) (A) (A) (A) (A) (A) (A) (A)
                 (A) (A) (A) (A) (A) (A) (A) (A) (A) (A) (A) (A)
                 (A) (A) (A) (A) (A) (A) (A) (A) (A) (A) (A) (A)
                 (A) (A) (A) (A) (A) (A) (A) (A) (A) (A) (A) (A)
                 (A) (A) (A) (A) (A) (A) (A) (A) (A) (A) (A) (A)
                 (A) (A) (A) (A) (A) (A) (A) (A) (A) (A) (A) (A)
                 (A) (A) (A) (A) (A) (A) (A) (A) (A) (A) (A) (A)
                 (A) (A) (A) (A) (A) (A) (A) (A) (A) (A) (A) (A)
                 (A) (A) (A) (A) (A) (A) (A) (A) (A) (A) (A) (A)
                 (A) (A) (A) (A) (A) (A) (A) (A) (A) (A) (A) (A)
                 (A) (A) (A) (A) (A) (A) (A) (A) (A) (A) (A) (A)
                 (A) (A) (A) (A) (A) (A) (A) (A) (A) (A) (A) (A)
                 (A) (A) (A) (A) (A) (A) (A) (A) (A) (A) (A) (A)
                 (A) (A) (A) (A) (A) (A) (A) (A) (A) (A) (A) (A)
                 (A) (A) (A) (A) (A) (A) (A) (A) (A) (A) (A) (A)
                 (A) (A) (A) (A) (A) (A) (A) (A) (A) (A) (A) (A)
                 (A) (A) (A) (A) (A) (A) (A) (A) (A) (A) (A) (A)
                 (A) (A) (A) (A) (A) (A) (A) (A) (A) (A) (A) (A)
                 (A) (A) (A) (A) (A) (A) (A) (A) (A) (A) (A) (A)
                 (A) (A) (A) (A) (A) (A) (A) (A) (A) (A) (A) (A)
                 (A) (A) (A) (A) (A) (A) (A) (A) (A) (A) (A) (A)
                 (A) (A) (A) (A) (A) (A) (A) (A) (A) (A) (A) (A)
                 (A) (A) (A) (A) (A) (A) (A) (A) (A) (A) (A) (A)
                 (A) (A) (A) (A) (A) (A) (A) (A) (A) (A) (A) (A)
                 (A) (A) (A) (A) (A) (A) (A) (A) (A) (A) (A) (A)
                 (A) (A) (A) (A) (A) (A) (A) (A) (A) (A) (A) (A)
                 (A) (A) (A) (A) (A) (A) (A) (A) (A) (A) (A) (A)
                 (A) (A) (A) (A) (A) (A) (A) (A) (A) (A) (A) (A)
                 (A) (A) (A) (A) (A) (A) (A) (A) (A) (A) (A) (A)
                 (A) (A) (A) (A) (A) (A) (A) (A) (A) (A) (A) (A)
                 (A) (A) (A) (A) (A) (A) (A) (A) (A) (A) (A) (A)
                 (A) (A) (A) (A) (A) (A) (A) (A) (A) (A) (A) (A)
                 (A) (A) (A) (A) (A) (A) (A) (A) (A) (A) (A) (A)
                 (A) (A) (A) (A) (A) (A) (A) (A) (A) (A) (A) (A)
                 (A) (A) (A) (A) (A) (A) (A) (A) (A) (A) (A) (A)
 The electronic state is 1-A.
 Alpha  occ. eigenvalues -- -160.22400 -88.06811 -88.06677 -88.06256 -24.34684
 Alpha  occ. eigenvalues --  -24.34588 -24.34526 -24.34410 -24.34399 -24.34389
 Alpha  occ. eigenvalues --  -24.33917 -24.33885 -24.33849 -18.88425 -18.87312
 Alpha  occ. eigenvalues --  -18.85508 -18.85327 -18.85293 -18.85064 -18.85058
 Alpha  occ. eigenvalues --  -18.84547 -18.84378 -18.84129 -18.83781 -17.20963
 Alpha  occ. eigenvalues --  -14.51121 -14.51068 -14.51033 -14.18628 -14.15505
 Alpha  occ. eigenvalues --  -14.13849 -14.13022 -10.34037 -10.33996 -10.33732
 Alpha  occ. eigenvalues --  -10.21672 -10.21148 -10.19788 -10.13641 -10.13268
 Alpha  occ. eigenvalues --  -10.12810 -10.12593 -10.11110 -10.10682 -10.10268
 Alpha  occ. eigenvalues --  -10.08978 -10.08078 -10.07711 -10.07649 -10.06973
 Alpha  occ. eigenvalues --  -10.06538 -10.06413 -10.06076 -10.06044 -10.06009
 Alpha  occ. eigenvalues --   -7.96647  -7.96497  -7.96089  -6.16172  -6.16117
 Alpha  occ. eigenvalues --   -6.16023  -6.15977  -6.15968  -6.15834  -6.15617
 Alpha  occ. eigenvalues --   -6.15555  -6.15428  -2.17202  -1.41823  -1.41717
 Alpha  occ. eigenvalues --   -1.41460  -1.38342  -1.38274  -1.37798  -1.28377
 Alpha  occ. eigenvalues --   -1.28270  -1.28262  -1.28227  -1.27758  -1.27643
 Alpha  occ. eigenvalues --   -1.21268  -1.20741  -1.20360  -1.14905  -1.12917
 Alpha  occ. eigenvalues --   -1.09485  -1.08351  -1.07915  -1.07321  -1.06031
 Alpha  occ. eigenvalues --   -1.05829  -1.05486  -0.98233  -0.96159  -0.94849
 Alpha  occ. eigenvalues --   -0.91276  -0.90549  -0.86696  -0.84443  -0.81909
 Alpha  occ. eigenvalues --   -0.80960  -0.80764  -0.80601  -0.79786  -0.79653
 Alpha  occ. eigenvalues --   -0.78554  -0.75668  -0.73365  -0.72656  -0.72614
 Alpha  occ. eigenvalues --   -0.72042  -0.70564  -0.68969  -0.68293  -0.68175
 Alpha  occ. eigenvalues --   -0.68154  -0.68117  -0.67706  -0.67669  -0.65842
 Alpha  occ. eigenvalues --   -0.65336  -0.64296  -0.63598  -0.63091  -0.62790
 Alpha  occ. eigenvalues --   -0.62329  -0.62053  -0.61176  -0.60241  -0.58482
 Alpha  occ. eigenvalues --   -0.58126  -0.57848  -0.57465  -0.57378  -0.56467
 Alpha  occ. eigenvalues --   -0.56333  -0.56235  -0.55511  -0.55449  -0.55263
 Alpha  occ. eigenvalues --   -0.55236  -0.55003  -0.54703  -0.54502  -0.54500
 Alpha  occ. eigenvalues --   -0.54191  -0.54119  -0.53704  -0.53432  -0.52908
 Alpha  occ. eigenvalues --   -0.52656  -0.52385  -0.52256  -0.52153  -0.52099
 Alpha  occ. eigenvalues --   -0.51868  -0.51601  -0.51459  -0.51324  -0.50638
 Alpha  occ. eigenvalues --   -0.50468  -0.49629  -0.49467  -0.48958  -0.48396
 Alpha  occ. eigenvalues --   -0.48139  -0.47958  -0.47729  -0.47222  -0.46468
 Alpha  occ. eigenvalues --   -0.46294  -0.46061  -0.45879  -0.45723  -0.44890
 Alpha  occ. eigenvalues --   -0.44653  -0.44553  -0.43877  -0.43814  -0.43571
 Alpha  occ. eigenvalues --   -0.43304  -0.43120  -0.42733  -0.42531  -0.42158
 Alpha  occ. eigenvalues --   -0.41868  -0.41559  -0.41383  -0.41010  -0.40644
 Alpha  occ. eigenvalues --   -0.40598  -0.40128  -0.39955  -0.39903  -0.39379
 Alpha  occ. eigenvalues --   -0.39262  -0.38721  -0.38418  -0.38204  -0.38047
 Alpha  occ. eigenvalues --   -0.37860  -0.37636  -0.37087  -0.37073  -0.36571
 Alpha  occ. eigenvalues --   -0.35899  -0.34570  -0.33549  -0.29603  -0.29361
 Alpha  occ. eigenvalues --   -0.27490
 Alpha virt. eigenvalues --   -0.07073  -0.06107  -0.04298  -0.02561  -0.00870
 Alpha virt. eigenvalues --   -0.00218   0.00338   0.00644   0.00977   0.01372
 Alpha virt. eigenvalues --    0.01851   0.03532   0.05655   0.06193   0.06825
 Alpha virt. eigenvalues --    0.07697   0.07918   0.08576   0.08718   0.08898
 Alpha virt. eigenvalues --    0.09008   0.09224   0.09726   0.09898   0.10492
 Alpha virt. eigenvalues --    0.10716   0.10778   0.10973   0.11626   0.12317
 Alpha virt. eigenvalues --    0.13040   0.13156   0.13444   0.14164   0.14470
 Alpha virt. eigenvalues --    0.14731   0.14807   0.15288   0.15788   0.16156
 Alpha virt. eigenvalues --    0.16487   0.16841   0.16922   0.17613   0.18093
 Alpha virt. eigenvalues --    0.18212   0.18801   0.18856   0.19321   0.19422
 Alpha virt. eigenvalues --    0.20343   0.20459   0.20888   0.21233   0.21826
 Alpha virt. eigenvalues --    0.22408   0.22568   0.23395   0.23471   0.23976
 Alpha virt. eigenvalues --    0.24036   0.24783   0.25172   0.25312   0.25603
 Alpha virt. eigenvalues --    0.25764   0.26545   0.26821   0.27036   0.27110
 Alpha virt. eigenvalues --    0.27775   0.27939   0.28428   0.28769   0.28907
 Alpha virt. eigenvalues --    0.29218   0.29535   0.30331   0.31446   0.31818
 Alpha virt. eigenvalues --    0.32254   0.32746   0.33147   0.34424   0.35450
 Alpha virt. eigenvalues --    0.35925   0.37412   0.37671   0.38523   0.39058
 Alpha virt. eigenvalues --    0.39947   0.40721   0.40967   0.41199   0.41688
 Alpha virt. eigenvalues --    0.42217   0.43216   0.43671   0.44297   0.44688
 Alpha virt. eigenvalues --    0.44943   0.45512   0.45733   0.46443   0.46600
 Alpha virt. eigenvalues --    0.47114   0.47272   0.47576   0.48237   0.48369
 Alpha virt. eigenvalues --    0.48629   0.49205   0.49813   0.49888   0.50084
 Alpha virt. eigenvalues --    0.50376   0.50659   0.51158   0.51731   0.52029
 Alpha virt. eigenvalues --    0.52449   0.52980   0.53719   0.53931   0.54679
 Alpha virt. eigenvalues --    0.54983   0.55423   0.55626   0.56058   0.56809
 Alpha virt. eigenvalues --    0.57008   0.57602   0.57929   0.58337   0.59464
 Alpha virt. eigenvalues --    0.59684   0.60269   0.60625   0.60874   0.61286
 Alpha virt. eigenvalues --    0.61715   0.62659   0.62818   0.63193   0.63438
 Alpha virt. eigenvalues --    0.63799   0.64401   0.64539   0.65225   0.65483
 Alpha virt. eigenvalues --    0.65640   0.66259   0.66323   0.67066   0.67281
 Alpha virt. eigenvalues --    0.67675   0.67862   0.68075   0.68334   0.68757
 Alpha virt. eigenvalues --    0.68955   0.69142   0.69427   0.69661   0.69860
 Alpha virt. eigenvalues --    0.70361   0.70627   0.70873   0.71175   0.71354
 Alpha virt. eigenvalues --    0.71444   0.71732   0.72347   0.72892   0.73241
 Alpha virt. eigenvalues --    0.73542   0.73583   0.74334   0.74615   0.74999
 Alpha virt. eigenvalues --    0.75618   0.75823   0.76362   0.76712   0.77152
 Alpha virt. eigenvalues --    0.77377   0.77918   0.78104   0.78353   0.78743
 Alpha virt. eigenvalues --    0.79055   0.79604   0.80480   0.81588   0.81844
 Alpha virt. eigenvalues --    0.82298   0.82876   0.84240   0.84407   0.84893
 Alpha virt. eigenvalues --    0.85798   0.86306   0.86504   0.87138   0.87742
 Alpha virt. eigenvalues --    0.88458   0.88584   0.89342   0.89765   0.90574
 Alpha virt. eigenvalues --    0.90921   0.91482   0.91807   0.93226   0.93596
 Alpha virt. eigenvalues --    0.93832   0.94751   0.95062   0.96059   0.96436
 Alpha virt. eigenvalues --    0.97658   0.97816   0.97868   0.98105   0.98596
 Alpha virt. eigenvalues --    0.99091   0.99450   1.00738   1.01041   1.01450
 Alpha virt. eigenvalues --    1.02144   1.02770   1.03303   1.03744   1.04514
 Alpha virt. eigenvalues --    1.04643   1.05332   1.05974   1.06115   1.07018
 Alpha virt. eigenvalues --    1.07556   1.07654   1.08373   1.08997   1.09186
 Alpha virt. eigenvalues --    1.09542   1.10124   1.10349   1.10600   1.11384
 Alpha virt. eigenvalues --    1.12235   1.12367   1.12760   1.13237   1.13698
 Alpha virt. eigenvalues --    1.13944   1.14604   1.15515   1.15746   1.16539
 Alpha virt. eigenvalues --    1.16807   1.17053   1.17303   1.17943   1.18162
 Alpha virt. eigenvalues --    1.18937   1.19162   1.19509   1.19850   1.20880
 Alpha virt. eigenvalues --    1.21339   1.21681   1.22082   1.22379   1.22715
 Alpha virt. eigenvalues --    1.22959   1.23651   1.24062   1.24421   1.25242
 Alpha virt. eigenvalues --    1.25297   1.25822   1.26141   1.26302   1.26642
 Alpha virt. eigenvalues --    1.26996   1.27443   1.28218   1.28522   1.29043
 Alpha virt. eigenvalues --    1.30002   1.30106   1.31181   1.31453   1.31567
 Alpha virt. eigenvalues --    1.32336   1.32435   1.33275   1.33610   1.33691
 Alpha virt. eigenvalues --    1.34382   1.34901   1.35738   1.36040   1.37089
 Alpha virt. eigenvalues --    1.37284   1.37997   1.38654   1.38777   1.39409
 Alpha virt. eigenvalues --    1.40261   1.41060   1.41481   1.41832   1.42748
 Alpha virt. eigenvalues --    1.42828   1.43504   1.43733   1.44247   1.44656
 Alpha virt. eigenvalues --    1.44973   1.46199   1.46570   1.46948   1.47585
 Alpha virt. eigenvalues --    1.48278   1.48914   1.49777   1.50426   1.51589
 Alpha virt. eigenvalues --    1.52121   1.52734   1.52884   1.53540   1.53831
 Alpha virt. eigenvalues --    1.54059   1.55068   1.55616   1.55729   1.56506
 Alpha virt. eigenvalues --    1.56906   1.57095   1.58050   1.58369   1.58811
 Alpha virt. eigenvalues --    1.59412   1.59685   1.60505   1.60842   1.61262
 Alpha virt. eigenvalues --    1.62433   1.62716   1.63624   1.64391   1.64916
 Alpha virt. eigenvalues --    1.65490   1.66125   1.66759   1.67401   1.68382
 Alpha virt. eigenvalues --    1.68962   1.69447   1.69875   1.70839   1.71579
 Alpha virt. eigenvalues --    1.71901   1.72131   1.72402   1.73017   1.73853
 Alpha virt. eigenvalues --    1.74177   1.74615   1.74919   1.75315   1.75824
 Alpha virt. eigenvalues --    1.75932   1.76676   1.76937   1.77563   1.77735
 Alpha virt. eigenvalues --    1.78200   1.79088   1.79171   1.79613   1.80110
 Alpha virt. eigenvalues --    1.80698   1.81908   1.82192   1.82514   1.82824
 Alpha virt. eigenvalues --    1.83902   1.84767   1.84869   1.85408   1.85636
 Alpha virt. eigenvalues --    1.86374   1.86690   1.86977   1.87426   1.87811
 Alpha virt. eigenvalues --    1.88520   1.89241   1.89744   1.89928   1.90435
 Alpha virt. eigenvalues --    1.90765   1.91008   1.91188   1.91601   1.92272
 Alpha virt. eigenvalues --    1.92516   1.92989   1.93251   1.93369   1.94188
 Alpha virt. eigenvalues --    1.94954   1.96336   1.96553   1.96835   1.97833
 Alpha virt. eigenvalues --    1.97875   1.98450   1.99022   1.99279   1.99857
 Alpha virt. eigenvalues --    2.00411   2.00788   2.01341   2.01910   2.02335
 Alpha virt. eigenvalues --    2.02746   2.03067   2.03588   2.03848   2.04586
 Alpha virt. eigenvalues --    2.04960   2.05428   2.05986   2.06711   2.07582
 Alpha virt. eigenvalues --    2.09073   2.09825   2.10242   2.10487   2.11422
 Alpha virt. eigenvalues --    2.12427   2.12686   2.13150   2.14353   2.14724
 Alpha virt. eigenvalues --    2.15107   2.15797   2.16609   2.17974   2.20082
 Alpha virt. eigenvalues --    2.20579   2.21126   2.22634   2.23836   2.24214
 Alpha virt. eigenvalues --    2.24566   2.25053   2.25092   2.25950   2.26471
 Alpha virt. eigenvalues --    2.27189   2.29883   2.30414   2.30685   2.32046
 Alpha virt. eigenvalues --    2.32415   2.33424   2.34439   2.36674   2.38219
 Alpha virt. eigenvalues --    2.39256   2.39652   2.40271   2.41093   2.41332
 Alpha virt. eigenvalues --    2.43446   2.43948   2.44745   2.45411   2.46977
 Alpha virt. eigenvalues --    2.48361   2.50163   2.51150   2.53226   2.54807
 Alpha virt. eigenvalues --    2.55926   2.56351   2.57068   2.57424   2.57706
 Alpha virt. eigenvalues --    2.58318   2.59189   2.59821   2.60076   2.60315
 Alpha virt. eigenvalues --    2.60943   2.61143   2.61715   2.62102   2.62400
 Alpha virt. eigenvalues --    2.62720   2.64039   2.64672   2.65653   2.66152
 Alpha virt. eigenvalues --    2.67031   2.67569   2.67927   2.68555   2.68732
 Alpha virt. eigenvalues --    2.69331   2.70296   2.71131   2.71505   2.71945
 Alpha virt. eigenvalues --    2.72355   2.72617   2.73021   2.73806   2.74725
 Alpha virt. eigenvalues --    2.75325   2.76585   2.76962   2.77582   2.78412
 Alpha virt. eigenvalues --    2.78747   2.79214   2.79918   2.80366   2.80761
 Alpha virt. eigenvalues --    2.81550   2.82965   2.83488   2.83840   2.84329
 Alpha virt. eigenvalues --    2.85477   2.85948   2.86636   2.87245   2.87973
 Alpha virt. eigenvalues --    2.89989   2.90882   2.91171   2.91303   2.92098
 Alpha virt. eigenvalues --    2.92628   2.93276   2.93673   2.93844   2.94846
 Alpha virt. eigenvalues --    2.94893   2.95575   2.96393   2.96642   2.97808
 Alpha virt. eigenvalues --    2.97867   2.98317   2.98361   2.98676   2.99830
 Alpha virt. eigenvalues --    3.00540   3.01431   3.02233   3.02252   3.02328
 Alpha virt. eigenvalues --    3.02505   3.02560   3.02675   3.02698   3.02750
 Alpha virt. eigenvalues --    3.02868   3.02884   3.03045   3.03259   3.03388
 Alpha virt. eigenvalues --    3.03571   3.04137   3.04235   3.04706   3.05456
 Alpha virt. eigenvalues --    3.05989   3.06237   3.06966   3.07577   3.08897
 Alpha virt. eigenvalues --    3.10125   3.11692   3.13999   3.15161   3.15536
 Alpha virt. eigenvalues --    3.15584   3.15811   3.16001   3.16178   3.16753
 Alpha virt. eigenvalues --    3.20147   3.21533   3.22810   3.26890   3.30423
 Alpha virt. eigenvalues --    3.33563   3.33942   3.34344   3.36296   3.36517
 Alpha virt. eigenvalues --    3.36977   3.37298   3.37960   3.38040   3.39098
 Alpha virt. eigenvalues --    3.39481   3.43106   3.44902   3.51063   3.51878
 Alpha virt. eigenvalues --    3.52160   3.52604   3.52744   3.53140   3.54656
 Alpha virt. eigenvalues --    3.58749   3.61558   3.67498   3.67905   3.68422
 Alpha virt. eigenvalues --    3.81029   3.81947   3.82406   3.82977   3.83199
 Alpha virt. eigenvalues --    3.83992
          Condensed to atoms (all electrons):
 Mulliken charges:
               1
     1  C   -0.311884
     2  C    0.045313
     3  C    0.106343
     4  O   -0.195754
     5  O   -0.216412
     6  O   -0.440239
     7  O   -0.442450
     8  O   -0.430490
     9  S    0.893730
    10  S    0.867946
    11  S    0.859399
    12  O   -0.443639
    13  O   -0.382709
    14  O   -0.427075
    15  O   -0.384848
    16  O   -0.435703
    17  O   -0.399511
    18  C    0.445886
    19  C    0.448804
    20  C    0.433692
    21  F   -0.115974
    22  F   -0.111170
    23  F   -0.122663
    24  F   -0.102302
    25  F   -0.119701
    26  F   -0.118520
    27  F   -0.104234
    28  F   -0.117678
    29  F   -0.121115
    30  C    0.134261
    31  C   -0.230478
    32  C   -0.165595
    33  C   -0.150818
    34  C    0.020384
    35  C   -0.002459
    36  C    0.014598
    37  H    0.041616
    38  H    0.054679
    39  H    0.039935
    40  N    0.144130
    41  N    0.110909
    42  N   -0.218869
    43  N   -0.019674
    44  C    0.141952
    45  H    0.046391
    46  C    0.176417
    47  H    0.064121
    48  H    0.055153
    49  Sc   0.316920
    50  H    0.079762
    51  C   -0.030668
    52  C   -0.024707
    53  C    0.022297
    54  C    0.012133
    55  H   -0.000109
    56  C   -0.000322
    57  H    0.003794
    58  C    0.014245
    59  H    0.003230
    60  H    0.009610
    61  H    0.013718
    62  C    0.123197
    63  H    0.076125
    64  H    0.082561
    65  H    0.089985
    66  C    0.215829
    67  H    0.040557
    68  H    0.072528
    69  H    0.065623
 Sum of Mulliken charges =  -0.00000
 Mulliken charges with hydrogens summed into heavy atoms:
               1
     1  C   -0.311884
     2  C    0.045313
     3  C    0.106343
     4  O   -0.195754
     5  O   -0.216412
     6  O   -0.440239
     7  O   -0.442450
     8  O   -0.430490
     9  S    0.893730
    10  S    0.867946
    11  S    0.859399
    12  O   -0.443639
    13  O   -0.382709
    14  O   -0.427075
    15  O   -0.384848
    16  O   -0.435703
    17  O   -0.399511
    18  C    0.445886
    19  C    0.448804
    20  C    0.433692
    21  F   -0.115974
    22  F   -0.111170
    23  F   -0.122663
    24  F   -0.102302
    25  F   -0.119701
    26  F   -0.118520
    27  F   -0.104234
    28  F   -0.117678
    29  F   -0.121115
    30  C    0.214023
    31  C   -0.230478
    32  C   -0.165595
    33  C   -0.150818
    34  C    0.062000
    35  C    0.052220
    36  C    0.054533
    40  N    0.144130
    41  N    0.110909
    42  N   -0.218869
    43  N   -0.019674
    44  C    0.188343
    46  C    0.295691
    49  Sc   0.316920
    51  C   -0.030668
    52  C   -0.024815
    53  C    0.026090
    54  C    0.015363
    56  C    0.009288
    58  C    0.027963
    62  C    0.371868
    66  C    0.394537
 APT charges:
               1
     1  C   -0.378524
     2  C    1.266695
     3  C    1.348465
     4  O   -1.258481
     5  O   -1.276161
     6  O   -1.236356
     7  O   -1.232676
     8  O   -1.236194
     9  S    2.569981
    10  S    2.538680
    11  S    2.466242
    12  O   -1.259111
    13  O   -0.986088
    14  O   -1.209872
    15  O   -0.967150
    16  O   -1.190600
    17  O   -0.975660
    18  C    1.930836
    19  C    1.881532
    20  C    1.901244
    21  F   -0.638238
    22  F   -0.658911
    23  F   -0.691449
    24  F   -0.642500
    25  F   -0.659990
    26  F   -0.662470
    27  F   -0.669895
    28  F   -0.675817
    29  F   -0.673833
    30  C    0.135667
    31  C    0.798932
    32  C    0.177244
    33  C    0.005572
    34  C   -0.045741
    35  C    0.244544
    36  C   -0.121869
    37  H    0.091389
    38  H    0.051487
    39  H    0.084730
    40  N   -0.383799
    41  N   -0.350842
    42  N   -0.761541
    43  N   -0.201801
    44  C    0.331727
    45  H   -0.001607
    46  C    0.046914
    47  H    0.080926
    48  H    0.025160
    49  Sc   3.124868
    50  H   -0.004408
    51  C   -0.034111
    52  C   -0.070523
    53  C   -0.085812
    54  C   -0.048268
    55  H    0.065920
    56  C   -0.040052
    57  H    0.085778
    58  C   -0.028327
    59  H    0.059246
    60  H    0.051223
    61  H    0.052626
    62  C   -0.325075
    63  H    0.065385
    64  H    0.112581
    65  H    0.113406
    66  C   -0.335287
    67  H    0.104787
    68  H    0.082194
    69  H    0.123056
 Sum of APT charges =   0.00000
 APT charges with hydrogens summed into heavy atoms:
               1
     1  C   -0.378524
     2  C    1.266695
     3  C    1.348465
     4  O   -1.258481
     5  O   -1.276161
     6  O   -1.236356
     7  O   -1.232676
     8  O   -1.236194
     9  S    2.569981
    10  S    2.538680
    11  S    2.466242
    12  O   -1.259111
    13  O   -0.986088
    14  O   -1.209872
    15  O   -0.967150
    16  O   -1.190600
    17  O   -0.975660
    18  C    1.930836
    19  C    1.881532
    20  C    1.901244
    21  F   -0.638238
    22  F   -0.658911
    23  F   -0.691449
    24  F   -0.642500
    25  F   -0.659990
    26  F   -0.662470
    27  F   -0.669895
    28  F   -0.675817
    29  F   -0.673833
    30  C    0.131259
    31  C    0.798932
    32  C    0.177244
    33  C    0.005572
    34  C    0.045648
    35  C    0.296030
    36  C   -0.037140
    40  N   -0.383799
    41  N   -0.350842
    42  N   -0.761541
    43  N   -0.201801
    44  C    0.330120
    46  C    0.152999
    49  Sc   3.124868
    51  C   -0.034111
    52  C   -0.004602
    53  C   -0.000034
    54  C    0.010978
    56  C    0.011171
    58  C    0.024299
    62  C   -0.033704
    66  C   -0.025249
 Electronic spatial extent (au):  <R**2>=          29567.4420
 Charge=             -0.0000 electrons
 Dipole moment (field-independent basis, Debye):
    X=              8.3299    Y=             -6.4103    Z=              1.5043  Tot=             10.6180
 Quadrupole moment (field-independent basis, Debye-Ang):
   XX=           -374.1430   YY=           -298.8222   ZZ=           -329.9744
   XY=             -9.6202   XZ=              5.4730   YZ=              7.3421
 Traceless Quadrupole moment (field-independent basis, Debye-Ang):
[...]
 .00001723,0.00000442,-0.00000979,-0.00000181,-0.00001186,0.00001504,0.
 00003051,-0.00001893,0.00006724,-0.00001435,0.00000686,-0.00001021,-0.
 00000906,0.00002111,-0.00001100,0.00000389,0.00000168,0.00000871,-0.00
 000792,0.00000777,-0.09302275,-0.06866526,0.00884341,0.09808902,0.0758
 9587,0.00189436,-0.00091584,0.00089887,-0.02593681,-0.00513149,0.01025
 598,-0.00090880,-0.00008697,0.00033952,0.00054369,0.00028357,-0.000247
 21,-0.00512560,-0.00529180,-0.00657651,-0.00009627,0.00007303,-0.00007
 097,-0.00008935,0.00018113,0.00023788,-0.00022402,-0.00034283,-0.00015
 135,0.00022150,0.00032698,-0.00007915,0.00008783,-0.00004477,0.0000897
 4,-0.00029887,-0.00022200,-0.00072673,-0.00006950,-0.00011128,0.000023
 50,-0.00006591,-0.00010283,-0.00000911,-0.00008287,0.00003234,-0.00007
 127,-0.00002117,0.00002201,-0.00003733,-0.00015950,0.00023283,0.000257
 14,0.00044913,-0.00005864,0.00016305,0.00000810,-0.00000274,0.00003917
 ,0.00004219,0.00001194,-0.00000654,-0.00006224,0.00010266,-0.00005920,
 0.00000197,-0.00000861,0.00000634,0.00001808,0.00000681,0.00000055,-0.
 00001306,0.00001711,0.00001788,-0.00001195,-0.00000130,0.00000093,-0.0
 0001851,0.00000720,0.00000616,-0.00001534,-0.00001146,-0.00000476,0.00
 001266,-0.00004137,0.00003027,-0.00000366,-0.00004378,0.00003711,0.000
 03865,-0.00002867,0.00000068,-0.00007280,-0.00001837,-0.00013096,0.000
 29244,-0.00069085,-0.00050721,0.00005736,-0.00001479,0.00010523,-0.000
 06683,0.00019715,0.00014995,0.00000040,0.00120133,-0.00089192,0.000479
 09,-0.00073645,-0.00028488,-0.00045189,0.00027691,-0.00016351,0.000015
 21,-0.00007416,0.00001080,-0.00001971,-0.00001454,-0.00005018,-0.00000
 686,-0.00009076,0.00004649,-0.00007280,0.00002934,-0.00003041,0.000020
 51,-0.00009777,0.00010033,0.00003663,0.00024336,-0.00070661,0.00134835
 ,0.00182223,0.00009325,-0.00055377,0.00086517,-0.00237831,0.00005509,0
 .00007618,0.00016829,-0.00006830,0.00020794,-0.00028374,-0.00002821,0.
 00005809,0.00007473,0.00000975,-0.00006752,-0.00000445,0.00122961,-0.0
 0044465,0.00048910,0.00003215,0.00002549,0.00000738,-0.00001878,-0.000
 03015,0.00004457,-0.00009059,-0.00018836,0.00004760,0.00010838,-0.0002
 7343,0.00000148,-0.00007874,0.00005824,-0.00021529,0.00000208,0.000009
 34,0.00001241,0.00005673,-0.00010024,0.00008316,0.00040149,-0.00007684
 ,0.00023015,0.00016654,0.00020548,0.00003932,-0.00000031,0.00000652,-0
 .00001089,-0.00003446,0.00002026,-0.00002397,0.00001118,0.00000773,-0.
 00000277,0.00017109,-0.00001530,0.00004927,0.00002004,-0.00002946,0.00
 001894,0.00001888,0.00000556,-0.00004243,-0.00001944,0.00001281,-0.000
 01126,0.01849286,0.00956130,-0.04933424,-0.01779347,-0.00776036,0.0490
 7875,0.00057737,-0.00175413,-0.00073546,0.00099979,0.01218751,-0.00415
 422,0.00007506,-0.00011001,0.00044343,-0.00014388,0.00005281,-0.000239
 77,-0.00154707,-0.00159444,-0.00059031,-0.00004826,0.00002452,-0.00002
 465,-0.00003790,0.00002946,0.00025617,-0.00011640,-0.00012732,-0.00001
 435,0.00013574,0.00015163,-0.00006904,0.00005703,-0.00002936,0.0001275
 2,-0.00030694,0.00005422,-0.00087830,-0.00003830,-0.00004720,0.0000470
 3,-0.00004196,-0.00004029,-0.00000439,-0.00003784,-0.00002884,-0.00006
 122,-0.00002064,0.00003727,-0.00005132,-0.00018420,0.00003604,0.000289
 40,0.00040509,-0.00011714,0.00027469,-0.00002499,0.00002857,0.00003538
 ,-0.00001041,0.00000220,-0.00000344,0.00001847,0.00002404,-0.00008764,
 0.00000766,-0.00003597,0.00002292,0.00002819,0.00000067,-0.00000028,-0
 .00000346,0.00000703,0.00001628,0.00000099,-0.00000379,0.00000341,-0.0
 0000589,0.00000107,0.00000150,-0.00000724,-0.00001104,-0.00000081,-0.0
 0000217,0.00000466,0.00005639,-0.00001222,-0.00002194,0.00003519,-0.00
 001240,0.00000337,0.00001820,-0.00005062,-0.00006120,-0.00001503,0.000
 08000,-0.00033529,-0.00007719,0.00000298,-0.00001916,0.00002103,-0.000
 06109,0.00011895,0.00010398,-0.00062649,-0.00064213,0.00025865,-0.0000
 2068,0.00012606,-0.00005024,0.00048237,-0.00016552,0.00039070,0.000107
 46,0.00003633,-0.00014672,-0.00001761,-0.00000126,0.00000578,0.0000031
 7,0.00001997,-0.00001655,-0.00000330,0.00001243,-0.00001265,0.00002063
 ,-0.00004985,0.00002845,-0.00027956,0.00021222,0.00102222,0.00003934,0
 .00003640,-0.00016144,-0.00041474,0.00012571,-0.00053611,0.00004444,0.
 00003689,-0.00001041,-0.00006275,0.00050487,-0.00046969,-0.00000341,0.
 00002038,0.00004670,0.00005738,-0.00017736,-0.00003828,0.00085756,0.00
 010505,0.00007072,0.00003256,0.00001747,0.00000343,0.00003997,-0.00020
 587,0.00001322,0.00001867,0.00010087,-0.00006176,-0.00012314,-0.000306
 92,0.00025356,-0.00002602,0.00004407,0.00006696,0.00000284,-0.00000366
 ,-0.00000786,-0.00010968,-0.00005105,-0.00009036,0.00002049,-0.0000579
 3,0.00001962,0.00013161,0.00017333,-0.00006791,-0.00000680,-0.00001437
 ,-0.00001152,-0.00004486,0.00002264,-0.00000819,-0.00000336,0.00000370
 ,0.00001920,0.00004490,0.00001661,-0.00002353,0.00000609,0.00000173,-0
 .00000489,-0.00001025,-0.00000238,-0.00001083,-0.00001561,-0.00000484,
 -0.00001096,-0.04826756,-0.02944981,0.01777214,0.00228863,-0.01723656,
 0.01782165,0.04511731,-0.00048458,-0.00100215,-0.00175481,0.00002360,0
 .00701972,-0.01107608,0.00021503,-0.00015856,-0.00004529,-0.00009610,-
 0.00000354,-0.00006060,0.00071609,0.00055321,-0.00062184,-0.00002890,0
 .00000234,-0.00002449,-0.00007705,-0.00002806,-0.00010568,-0.00000503,
 -0.00005573,-0.00000306,-0.00001236,0.00006708,-0.00000732,0.00005130,
 -0.00002168,0.00006411,0.00044238,-0.00013267,0.00053073,0.00000280,-0
 .00005647,-0.00001137,0.00000415,-0.00001749,0.00000442,-0.00001616,-0
 .00001074,-0.00001879,-0.00001136,0.00001525,-0.00003252,0.00013667,0.
 00008977,-0.00009225,-0.00036147,0.00010924,-0.00017762,0.00009210,-0.
 00007042,-0.00003187,0.00000348,-0.00000574,-0.00000197,-0.00006064,-0
 .00002307,-0.00006817,-0.00002526,0.00005099,-0.00002714,-0.00006348,-
 0.00000703,-0.00000461,-0.00002412,0.00002093,0.00001000,-0.00000345,-
 0.00000076,-0.00000287,-0.00000752,0.00000426,0.00000214,-0.00000722,-
 0.00000560,-0.00000327,0.00006152,0.00005977,0.00007336,0.00001632,0.0
 0000731,0.00000858,0.00001662,0.00000223,0.00001118,0.00000385,-0.0000
 4897,-0.00005644,0.00004272,-0.00010546,-0.00000633,0.00000504,-0.0000
 0477,-0.00000148,-0.00003604,0.00002093,0.00000976,-0.00038716,-0.0008
 1750,0.00027374,0.00015182,0.00011030,-0.00008661,0.00016257,-0.000001
 58,0.00035318,-0.00014079,0.00006599,-0.00001972,-0.00002562,0.0000025
 0,0.00000899,0.00000413,-0.00000677,0.00003260,-0.00000305,0.00000503,
 -0.00000287,0.00001666,-0.00001374,0.00001027,0.00013615,0.00026230,0.
 00010321,-0.00022704,-0.00012558,0.00000771,-0.00021865,-0.00007347,-0
 .00026135,0.00006107,-0.00000883,0.00001517,-0.00002032,0.00014814,-0.
 00033055,-0.00001308,0.00002315,0.00002122,0.00008440,-0.00009780,-0.0
 0003703,0.00018012,0.00016595,0.00013954,0.00001681,0.00000149,0.00000
 901,0.00032679,0.00029679,0.00013861,-0.00017036,0.00004906,0.00003245
 ,0.00063590,-0.00046347,-0.00038098,-0.00042549,0.00014263,-0.00012670
 ,-0.00000739,-0.00000398,0.00001529,0.00038266,0.00006482,-0.00017314,
 -0.00005565,0.00003435,0.00003457,-0.00000011,0.00019566,0.00031943,0.
 00000674,-0.00000010,-0.00000213,-0.00003850,0.00001650,0.00000835,0.0
 0001022,-0.00002167,-0.00000922,-0.00003055,0.00008280,-0.00001511,0.0
 0000021,0.00001996,-0.00000921,-0.00000464,-0.00000980,0.00000669,-0.0
 0000694,0.00000534,-0.00001827,-0.02774551,-0.19912641,0.14906362,0.00
 221840,-0.00406241,0.00277214,0.02757524,0.21042130,-0.00194746,-0.002
 48317,-0.00194441,0.00145216,0.02108400,-0.02440768,0.00088808,-0.0001
 5638,-0.00027116,-0.00034518,-0.00032785,0.00028779,0.00473385,-0.0000
 4357,0.00409013,0.00008473,-0.00004756,0.00007724,0.00006851,-0.000092
 81,-0.00010965,0.00000246,0.00006659,0.00004900,-0.00006357,-0.0001436
 7,-0.00009490,-0.00006937,0.00000513,-0.00005243,-0.00016306,0.0002105
 9,0.00024514,0.00004397,0.00011060,0.00002405,0.00003011,0.00004582,0.
 00003800,0.00007014,-0.00001689,0.00008058,0.00001494,-0.00000492,0.00
 001338,0.00013468,-0.00011539,-0.00004476,-0.00007880,-0.00001542,-0.0
 0010794,-0.00004683,0.00004860,0.00000938,-0.00006340,-0.00001810,0.00
 000696,-0.00005768,-0.00014721,-0.00005367,0.00001141,-0.00002112,0.00
 000262,0.00001725,-0.00001351,-0.00000423,0.00001779,-0.00002426,-0.00
 002800,0.00001493,0.00000158,-0.00000017,0.00001710,-0.00000543,-0.000
 00527,0.00001654,0.00001193,0.00000520,0.00006742,0.00010854,0.0000588
 3,0.00003176,0.00005155,-0.00001757,-0.00001269,0.00003608,0.00001736,
 0.00005626,-0.00002580,-0.00010849,-0.00000677,0.00001793,0.00002812,0
 .00000937,0.00001650,-0.00002191,-0.00003091,-0.00001528,-0.00002211,0
 .00009126,-0.00005550,-0.00005798,0.00015945,-0.00003872,-0.00005712,-
 0.00021175,-0.00009847,0.00017345,-0.00005821,-0.00000295,0.00007596,-
 0.00000684,0.00000350,0.00000220,0.00001043,0.00001041,0.00000892,0.00
 000053,-0.00001226,0.00001740,0.00001644,0.00000258,0.00000364,0.00015
 121,0.00007841,0.00001578,-0.00004237,0.00000181,-0.00000583,-0.000380
 71,-0.00032124,0.00034881,0.00001605,0.00004098,0.00000345,-0.00011140
 ,0.00040154,-0.00064893,0.00000191,-0.00002886,0.00000217,0.00012874,-
 0.00024576,-0.00005536,-0.00068412,0.00015298,-0.00045857,0.00002570,-
 0.00001250,0.00003711,-0.00022100,0.00002659,-0.00036441,-0.00004876,-
 0.00003644,-0.00013251,-0.00034559,0.00042131,0.00017853,0.00005552,-0
 .00007555,0.00007264,0.00001421,0.00001472,0.00000553,-0.00017252,-0.0
 0002605,0.00025082,0.00001313,-0.00002118,-0.00000589,0.00006197,-0.00
 011919,-0.00001964,0.00000744,0.00000381,0.00000243,-0.00001094,-0.000
 02040,-0.00003219,0.00000242,0.00001990,-0.00000995,-0.00016690,0.0001
 2607,-0.00001533,-0.00000008,0.00004561,-0.00002996,0.00000676,-0.0000
 2949,0.00003749,-0.00000592,0.00000566,-0.00002573,0.01773651,0.144761
 73,-0.16866837,-0.00064467,-0.00208871,0.00059249,-0.01959516,-0.15319
 774,0.18401573,-0.00080675,0.00145640,-0.00038016,0.00899564,-0.007418
 24,0.00132135,0.00070431,0.00010097,0.00007728,-0.00048878,0.00006357,
 -0.00022899,-0.00668362,-0.00084808,-0.00075097,0.00002078,0.00013872,
 0.00015954,0.00019874,0.00096630,0.00078717,-0.00015313,-0.00017162,-0
 .00002661,0.00026659,0.00024243,-0.00002319,0.00004772,-0.00015833,-0.
 00014947,-0.00434411,-0.00168146,-0.00244742,-0.00011298,-0.00003689,0
 .00005624,-0.00007751,-0.00007623,-0.00002532,-0.00012311,0.00007346,-
 0.00007027,0.00000132,0.00002379,0.00004076,0.00055961,0.00060252,0.00
 060122,0.00097415,0.00084097,0.00140881,-0.00078843,0.00054995,0.00018
 024,-0.00002423,0.00001157,-0.00001908,0.00002425,0.00013331,0.0000159
 1,0.00019854,-0.00031678,0.00015002,0.00045923,0.00000541,0.00002909,0
 .00016873,-0.00015028,-0.00011796,0.00000955,-0.00000156,0.00002182,-0
 .00000289,0.00000279,0.00000664,0.00001757,0.00000867,0.00001232,-0.00
 003389,-0.00010162,-0.00000942,-0.00002393,-0.00004920,0.00002813,0.00
 001434,-0.00002135,-0.00000788,-0.00006990,-0.00000578,-0.00003546,0.0
 0000555,0.00001290,-0.00003131,0.00001844,0.00003012,-0.00000660,-0.00
 000710,0.00003579,0.00000894,0.00033861,0.00062767,-0.00012473,-0.0003
 2122,-0.00018095,0.00006638,-0.00002408,0.00023083,-0.00029910,0.00016
 604,-0.00002493,-0.00006414,0.00003667,-0.00000217,-0.00002280,0.00001
 009,-0.00000792,-0.00003132,0.00000608,-0.00001358,0.00000554,0.000011
 55,-0.00001996,0.00000786,-0.00095775,-0.00055825,0.00055316,0.0006678
 2,0.00040708,0.00004282,-0.00011995,0.00010427,-0.00025361,0.00001703,
 0.00006092,0.00002563,-0.00008309,0.00001080,0.00052390,0.00002318,0.0
 0001114,0.00000766,0.00002663,0.00006407,0.00000783,0.00198328,-0.0004
 9017,-0.00010917,0.00003071,-0.00001554,0.00004107,-0.00009985,-0.0001
 3639,-0.00015635,0.00003812,-0.00001641,-0.00002121,-0.00028955,0.0004
 5519,0.00006854,0.00003269,0.00010064,-0.00009168,0.00000593,0.0000199
 6,0.00001443,-0.00014388,-0.00007320,0.00023391,0.00018321,0.00004145,
 0.00000865,0.00005245,0.00005434,0.00008252,-0.00000024,-0.00000020,0.
 00000078,0.00000273,-0.00000114,-0.00000306,0.00000911,0.00000653,-0.0
 0000453,-0.00016606,0.00000404,-0.00005551,0.00000117,0.00003173,-0.00
 003683,-0.00000049,-0.00000466,0.00001010,0.00000844,-0.00000565,-0.00
 000037,-0.12692968,0.11832237,0.04211587,-0.01102771,0.02072587,0.0084
 1471,0.00104590,-0.00296202,-0.00069049,0.13652143,-0.00022272,-0.0001
 3936,0.00005888,0.00326319,-0.01236939,-0.00538541,-0.00001436,0.00000
 805,-0.00026384,-0.00003912,-0.00002985,0.00013696,-0.00013579,0.00277
 290,-0.00013683,0.00017052,0.00001009,0.00015500,0.00021241,0.00005750
 ,0.00000248,0.00010824,0.00022693,0.00007752,-0.00009932,-0.00024875,-
 0.00001275,-0.00017107,0.00002672,-0.00020103,-0.00153570,0.00033370,0
 .00010174,0.00003348,0.00015281,0.00002470,0.00003782,0.00008427,0.000
 02237,0.00011071,0.00000561,0.00008519,0.00004523,-0.00002857,0.000076
 05,0.00128398,-0.00014855,0.00024785,0.00080441,-0.00058850,-0.0000722
 3,-0.00034082,0.00032657,0.00006682,-0.00010443,-0.00000790,0.00001267
 ,0.00003794,-0.00012676,0.00001722,0.00010222,-0.00018516,0.00009406,0
 .00026445,-0.00002382,0.00001652,0.00009799,-0.00011782,-0.00010891,0.
 00002986,0.00000243,0.00000851,0.00003969,-0.00001689,-0.00001106,0.00
 004082,0.00002598,0.00001374,0.00000057,0.00005700,0.00000373,0.000010
 09,0.00004825,-0.00002796,-0.00004074,0.00003908,0.00000768,0.00003239
 ,-0.00001249,-0.00005128,0.00004726,0.00002697,-0.00008480,0.00000865,
 -0.00002476,0.00001466,0.00000823,0.00000766,-0.00001581,-0.00014763,-
 0.00090259,0.00091108,0.00028780,-0.00014501,-0.00020728,-0.00043607,-
 0.00003024,0.00001921,-0.00016473,-0.00022168,0.00055350,0.00000232,-0
 .00000701,-0.00000648,-0.00001168,-0.00005682,0.00004474,-0.00000677,0
 .00001194,-0.00000782,-0.00000169,-0.00000953,0.00001195,-0.00049906,-
 0.00037298,0.00011777,0.00017265,0.00044265,0.00025013,0.00015746,0.00
 021404,-0.00027339,0.00000755,-0.00008889,-0.00001535,0.00005784,-0.00
 034909,-0.00006534,0.00001328,-0.00000372,-0.00002055,-0.00001824,0.00
 005336,-0.00000947,-0.00060954,-0.00045897,-0.00074247,-0.00001822,0.0
 0001625,-0.00002188,0.00011911,0.00016555,0.00013764,-0.00004673,-0.00
 006112,0.00004936,0.00021011,-0.00019159,-0.00018959,-0.00008646,0.000
 06275,-0.00011968,-0.00000254,-0.00000826,-0.00000150,0.00004064,0.000
 01570,-0.00009542,0.00002734,0.00002480,0.00002662,0.00004301,0.000140
 47,0.00005953,0.00000332,-0.00000433,-0.00000244,-0.00000703,0.0000024
 2,0.00000276,0.00000413,-0.00000637,-0.00000132,0.00004947,-0.00003553
 ,0.00006495,-0.00000508,-0.00001398,0.00002318,0.00000813,-0.00000009,
 0.00000170,0.00000044,0.00001052,0.00000417,0.12316057,-0.19481626,-0.
 06371283,-0.00611237,0.00764062,0.00421018,0.01075059,-0.01354512,-0.0
 0778368,-0.13102799,0.21238417,-0.00378738,0.00377411,-0.00147625,0.01
 602160,-0.02368219,-0.01150749,0.00124797,0.00046609,-0.00075142,-0.00
 044833,-0.00008689,0.00005657,-0.00122093,0.00239270,0.00133943,0.0000
 4097,0.00007278,0.00005953,0.00019706,0.00015229,-0.00032605,0.0000970
 9,0.00008837,0.00004887,-0.00003023,-0.00000655,0.00009368,0.00001854,
 -0.00007378,-0.00005150,-0.00099082,-0.00020133,0.00309846,-0.00000835
 ,-0.00003300,-0.00001858,0.00000554,0.00000608,-0.00002189,-0.00002810
 ,0.00002000,-0.00002229,0.00000407,0.00000909,0.00001432,0.00120814,0.
 00041559,-0.00086771,0.00015489,-0.00042684,-0.00158478,-0.00009070,0.
 00001291,-0.00017522,-0.00001008,-0.00000239,0.00001417,0.00001452,0.0
 0001644,0.00004429,-0.00001139,0.00007930,-0.00004720,0.00001576,-0.00
 000044,0.00001035,0.00008282,-0.00008910,-0.00008876,0.00000108,0.0000
 0305,-0.00000513,0.00000260,0.00000114,-0.00000138,0.00001155,0.000005
 27,0.00000198,-0.00002312,-0.00005011,-0.00002279,-0.00000462,-0.00000
 132,-0.00000930,0.00000464,-0.00000513,-0.00000956,-0.00003409,-0.0000
 3179,0.00004866,0.00000101,-0.00004594,-0.00001754,-0.00000211,-0.0000
 1725,0.00000265,-0.00000208,0.00001562,-0.00000147,0.00068817,0.000563
 36,-0.00074147,0.00012719,0.00008010,-0.00004383,-0.00012470,-0.000073
 60,0.00006414,-0.00014552,0.00044661,-0.00033287,-0.00003402,0.0000076
 7,0.00000860,0.00000545,-0.00001849,0.00003397,-0.00001107,0.00001191,
 -0.00000276,-0.00000069,-0.00000848,0.00000780,0.00029443,0.00022753,0
 .00006632,-0.00028901,-0.00013854,-0.00000594,0.00008416,-0.00008727,-
 0.00022958,0.00003120,0.00000578,0.00000365,-0.00004471,-0.00058543,0.
 00136895,0.00010163,-0.00003993,-0.00012070,-0.00006236,0.00032112,0.0
 0005823,0.00032339,-0.00019505,-0.00025998,0.00001423,0.00000328,0.000
 00483,0.00003100,-0.00038491,-0.00000514,0.00011889,0.00018558,-0.0001
 2342,-0.00022196,0.00017752,-0.00001612,0.00016600,-0.00005252,0.00022
 372,-0.00000441,0.00000629,-0.00000073,-0.00014798,0.00008806,0.000130
 58,0.00003545,0.00001423,0.00000648,-0.00010523,-0.00023453,-0.0000794
 4,-0.00000341,0.00000186,0.00000542,0.00001282,-0.00000349,-0.00000165
 ,0.00000104,0.00000813,-0.00000220,-0.00032812,-0.00002614,-0.00001530
 ,0.00001568,0.00006478,-0.00005826,0.00001208,-0.00001224,0.00000321,0
 .00000956,0.00002190,-0.00001840,0.04937741,-0.07029909,-0.06128690,-0
 .00031924,0.00040518,-0.00073532,-0.01120305,0.01482648,0.00700378,-0.
 05084182,0.07191558,0.06726369\\0.00000324,-0.00000196,0.00000188,0.00
 000417,0.00000125,0.00000052,-0.00001271,-0.00000578,0.00000408,0.0000
 1642,0.00001177,0.00000966,0.00000458,-0.00000852,0.00000069,0.0000129
 5,0.00000987,0.00001686,-0.00000393,-0.00000348,-0.00000198,0.00000443
 ,-0.00000983,0.00000945,0.00001985,-0.00000175,-0.00001168,-0.00000109
 ,-0.00001526,-0.00000860,0.00000396,0.00000193,-0.00000707,0.00000433,
 0.00000777,0.00000660,0.00000400,-0.00000277,-0.00000004,-0.00001203,0
 .00001287,-0.00000193,0.00000220,-0.00000120,-0.00000304,-0.00000071,-
 0.00000043,0.00000012,-0.00000696,0.00000338,-0.00000098,-0.00000348,-
 0.00000416,-0.00000511,-0.00000026,-0.00000370,-0.00000384,0.00000650,
 -0.00000082,-0.00000077,-0.00000381,-0.00000231,-0.00000157,-0.0000007
 2,-0.00000180,-0.00000363,-0.00000440,-0.00000089,-0.00000143,0.000000
 42,-0.00000253,-0.00000689,-0.00000128,-0.00000339,-0.00000928,0.00000
 209,-0.00000345,-0.00000583,-0.00000164,-0.00000109,-0.00000115,-0.000
 00035,-0.00000114,-0.00000251,-0.00000063,0.00000141,0.00000160,-0.000
 00283,-0.00000396,-0.00000058,0.00001523,0.00000672,-0.00000150,-0.000
 00616,0.00000279,0.00000103,-0.00000075,0.00000036,0.00000117,-0.00000
 055,0.00000118,0.00000133,-0.00000105,-0.00000094,0.00000063,-0.000004
 83,0.00000070,0.00000350,-0.00000104,-0.00000089,-0.00000074,-0.000002
 85,0.00000283,0.00000490,-0.00000296,0.00000196,0.00000119,0.00000052,
 0.00000336,0.00000513,0.00000184,-0.00000433,0.00000458,0.00000052,-0.
 00000029,0.00000524,0.00000005,0.00000510,0.00000829,-0.00000104,0.000
 00321,0.00000141,0.00000052,0.00000792,0.00000769,-0.00000224,0.000003
 50,0.00000486,0.00000122,0.00000185,-0.00000007,0.00000223,-0.00000054
 ,-0.00000103,-0.00002976,-0.00003036,-0.00004488,0.00000351,0.00000189
 ,0.00000189,-0.00000091,0.00000254,0.00000358,0.00000275,0.00000053,0.
 00000360,-0.00000245,-0.00000028,0.00000299,0.00000155,0.00000016,0.00
 000060,0.00000154,-0.00000048,0.00000142,-0.00000288,0.00000125,0.0000
 0227,-0.00000033,0.00000171,0.00000430,0.00000032,0.00000256,0.0000030
 2,0.00000312,0.00000164,0.00000224,-0.00000142,0.00000197,0.00000327,-
 0.00000099,0.00000165,0.00000238,0.00000087,0.00000547,-0.00001255,0.0
 0000007,0.00000051,-0.00000026,0.00000522,-0.00000224,-0.00000072,0.00
 000005,0.00000120,-0.00000171,-0.00001066,0.00000140,0.00000149,0.0000
 0144,0.00000361,-0.00000090,-0.00000385,-0.00000177,0.00000299,0.00000
 186,0.00000249,0.00000383\\\@


 OLD AGE AND TREACHERY WILL ALWAYS PREVAIL OVER YOUTH AND SKILL.
 Job cpu time:       3 days 13 hours 54 minutes 14.5 seconds.
 Elapsed time:       0 days  3 hours 34 minutes 52.8 seconds.
 File lengths (MBytes):  RWF=   6156 Int=      0 D2E=      0 Chk=     68 Scr=      8
 Normal termination of Gaussian 16 at Tue Mar  4 18:42:44 2025.
