 Entering Gaussian System, Link 0=/sysapps/ubuntu-applications/gaussian-new/avx/g16//g16
 Input=ts-min.in
 Output=ts-min.log
 Initial command:
 /sysapps/ubuntu-applications/gaussian-new/avx/g16/l1.exe "/scratch/selhajj1/7595734/Gau-4165741.inp" -scrdir="/scratch/selhajj1/7595734/"
 Entering Link 1 = /sysapps/ubuntu-applications/gaussian-new/avx/g16/l1.exe PID=   4165743.
  
 Copyright (c) 1988,1990,1992,1993,1995,1998,2003,2009,2016,
            Gaussian, Inc.  All Rights Reserved.
  
 This is part of the Gaussian(R) 16 program.  It is based on
 the Gaussian(R) 09 system (copyright 2009, Gaussian, Inc.),
 the Gaussian(R) 03 system (copyright 2003, Gaussian, Inc.),
 the Gaussian(R) 98 system (copyright 1998, Gaussian, Inc.),
 the Gaussian(R) 94 system (copyright 1995, Gaussian, Inc.),
 the Gaussian 92(TM) system (copyright 1992, Gaussian, Inc.),
 the Gaussian 90(TM) system (copyright 1990, Gaussian, Inc.),
 the Gaussian 88(TM) system (copyright 1988, Gaussian, Inc.),
 the Gaussian 86(TM) system (copyright 1986, Carnegie Mellon
 University), and the Gaussian 82(TM) system (copyright 1983,
 Carnegie Mellon University). Gaussian is a federally registered
 trademark of Gaussian, Inc.
  
 This software contains proprietary and confidential information,
 including trade secrets, belonging to Gaussian, Inc.
  
 This software is provided under written license and may be
 used, copied, transmitted, or stored only in accord with that
 written license.
  
 The following legend is applicable only to US Government
 contracts under FAR:
  
                    RESTRICTED RIGHTS LEGEND
  
 Use, reproduction and disclosure by the US Government is
 subject to restrictions as set forth in subparagraphs (a)
 and (c) of the Commercial Computer Software - Restricted
 Rights clause in FAR 52.227-19.
  
 Gaussian, Inc.
 340 Quinnipiac St., Bldg. 40, Wallingford CT 06492
  
  
 ---------------------------------------------------------------
 Warning -- This program may not be used in any manner that
 competes with the business of Gaussian, Inc. or will provide
 assistance to any competitor of Gaussian, Inc.  The licensee
 of this program is prohibited from giving any competitor of
 Gaussian, Inc. access to this program.  By using this program,
 the user acknowledges that Gaussian, Inc. is engaged in the
 business of creating and licensing software in the field of
 computational chemistry and represents and warrants to the
 licensee that it is not a competitor of Gaussian, Inc. and that
 it will not use this program in any manner prohibited above.
 ---------------------------------------------------------------
  

 Cite this work as:
 Gaussian 16, Revision A.03,
 M. J. Frisch, G. W. Trucks, H. B. Schlegel, G. E. Scuseria, 
 M. A. Robb, J. R. Cheeseman, G. Scalmani, V. Barone, 
 G. A. Petersson, H. Nakatsuji, X. Li, M. Caricato, A. V. Marenich, 
 J. Bloino, B. G. Janesko, R. Gomperts, B. Mennucci, H. P. Hratchian, 
 J. V. Ortiz, A. F. Izmaylov, J. L. Sonnenberg, D. Williams-Young, 
 F. Ding, F. Lipparini, F. Egidi, J. Goings, B. Peng, A. Petrone, 
 T. Henderson, D. Ranasinghe, V. G. Zakrzewski, J. Gao, N. Rega, 
 G. Zheng, W. Liang, M. Hada, M. Ehara, K. Toyota, R. Fukuda, 
 J. Hasegawa, M. Ishida, T. Nakajima, Y. Honda, O. Kitao, H. Nakai, 
 T. Vreven, K. Throssell, J. A. Montgomery, Jr., J. E. Peralta, 
 F. Ogliaro, M. J. Bearpark, J. J. Heyd, E. N. Brothers, K. N. Kudin, 
 V. N. Staroverov, T. A. Keith, R. Kobayashi, J. Normand, 
 K. Raghavachari, A. P. Rendell, J. C. Burant, S. S. Iyengar, 
 J. Tomasi, M. Cossi, J. M. Millam, M. Klene, C. Adamo, R. Cammi, 
 J. W. Ochterski, R. L. Martin, K. Morokuma, O. Farkas, 
 J. B. Foresman, and D. J. Fox, Gaussian, Inc., Wallingford CT, 2016.
 
 ******************************************
 Gaussian 16:  ES64L-G16RevA.03 25-Dec-2016
                18-Feb-2025 
 ******************************************
 %chk=ts-min.chk
 %mem=616Gb
 %nprocshared=24
 Will use up to   24 processors via shared memory.
 -------------------------------------------------------
 #opt=(calcfc,modred) freq UMN15/genecp scf=(maxcyc=500)
 -------------------------------------------------------
 1/10=4,18=120,19=15,26=3,38=1/1,3;
 2/9=110,12=2,17=6,18=5,40=1/2;
 3/5=7,11=2,16=1,17=8,25=1,30=1,71=2,74=-73,116=2,140=1/1,2,3;
 4//1;
 5/5=2,7=500,38=5/2;
 8/6=4,10=90,11=11/1;
 11/6=1,8=1,9=11,15=111,16=1/1,2,10;
 10/6=1,13=1/2;
 6/7=2,8=2,9=2,10=2,28=1/1;
 7/10=1,18=20,25=1/1,2,3,16;
 1/10=4,18=20,19=15,26=3/3(2);
 2/9=110/2;
 99//99;
 2/9=110/2;
 3/5=7,6=1,11=2,16=1,17=8,25=1,30=1,71=1,74=-73,82=7,116=2/1,2,3;
 4/5=5,16=3,69=1/1;
 5/5=2,7=500,38=5/2;
 7//1,2,3,16;
 1/18=20,19=15,26=3/3(-5);
 2/9=110/2;
 6/7=2,8=2,9=2,10=2,19=2,28=1/1;
 99/9=1/99;
 -----------------------------------------------------------------
 ts opt for i3 Going from i2 to i3, where we are forming bond 1-54
 -----------------------------------------------------------------
 Symbolic Z-matrix:
 Charge =  0 Multiplicity = 2
 C                     1.82388  -0.77265  -0.95279 
 C                     1.63492   0.1531    0.24644 
 C                     0.52409  -1.31506  -1.53292 
 O                    -0.41792  -0.58362  -1.76298 
 O                     0.64916   0.84926   0.38289 
 O                     2.62418   0.10035   1.09057 
 O                     0.57079  -2.58508  -1.81662 
 C                     2.59067   1.00717   2.20574 
 C                    -0.65364  -3.17232  -2.29653 
 H                     3.53071   0.85719   2.74718 
 H                     1.73035   0.76382   2.84165 
 H                     2.51419   2.03671   1.83137 
 H                    -0.43733  -4.23152  -2.46393 
 H                    -0.96337  -2.68374  -3.2288 
 H                    -1.42966  -3.04056  -1.53065 
 O                    -3.14788  -1.57001  -0.41129 
 O                    -1.5071   -0.35451   2.33307 
 O                    -1.4158    2.7612   -1.02595 
 S                    -1.87428   3.56075   0.13605 
 S                    -3.7635   -1.12401  -1.68881 
 S                    -0.55219  -1.47577   2.20991 
 O                    -2.18393   2.64595   1.26368 
 O                    -2.82633   4.61863  -0.13071 
 O                    -3.31122   0.2513   -2.00315 
 O                    -3.77733  -2.08508  -2.77336 
 O                    -0.29946  -1.80038   0.78537 
 O                     0.63238  -1.41117   3.05423 
 C                    -1.46835  -2.9438    2.8207 
 C                    -5.52454  -0.88285  -1.22914 
 C                    -0.36655   4.45245   0.69422 
 F                    -0.71144  -4.02021   2.64481 
 F                    -2.59861  -3.09422   2.1576 
 F                    -1.72859  -2.80446   4.10961 
 F                    -5.6044   -0.00794  -0.23338 
 F                    -6.0543   -2.03058  -0.83659 
 F                    -6.20699  -0.42089  -2.26417 
 F                     0.55599   3.60566   1.12479 
 F                    -0.67983   5.28107   1.67821 
 F                     0.13119   5.15412  -0.31633 
 C                     3.94542   0.05528  -1.88863 
 C                     4.74942  -1.24438  -1.52124 
 C                     6.20263  -1.0253   -1.4319 
 C                     4.52457  -2.20773  -2.62376 
 C                     2.47851  -2.90754   0.94299 
 C                     4.47093  -2.03775   1.9618 
 C                     3.23104  -2.72477   2.07295 
 H                     1.52739  -3.43947   0.94745 
 H                     5.10627  -1.85958   2.83181 
 H                     2.90458  -3.10702   3.03992 
 N                     7.34779  -0.87013  -1.45128 
 N                     4.35699  -2.94225  -3.50045 
 N                     4.21936  -1.81481  -0.26647 
 N                     4.93793  -1.59444   0.81738 
 C                     2.95417  -2.37297  -0.29237 
 H                     2.67717  -2.869    -1.2287 
 H                     4.22666   0.28547  -2.92747 
 C                     4.10731   1.30919  -1.05319 
 C                     3.17676   2.328    -1.31345 
 C                     5.12182   1.52721  -0.11385 
 C                     3.26621   3.55117  -0.64897 
 H                     2.37816   2.16566  -2.04286 
 C                     5.21196   2.75842   0.54071 
 H                     5.8489    0.75512   0.13593 
 C                     4.29104   3.77222   0.27453 
 H                     2.53348   4.33195  -0.85782 
 H                     6.01072   2.91803   1.26784 
 H                     4.36741   4.73207   0.78958 
 Yb                   -1.80932   0.50211   0.00723 
 O                     2.5918   -0.38591  -2.00031 
 
 The following ModRedundant input section has been read:
 B       1      54 F                                                           
 B       1      54 F                                                           
 

 GradGradGradGradGradGradGradGradGradGradGradGradGradGradGradGradGradGrad
 Berny optimization.
 Initialization pass.
                           ----------------------------
                           !    Initial Parameters    !
                           ! (Angstroms and Degrees)  !
 --------------------------                            --------------------------
 ! Name  Definition              Value          Derivative Info.                !
 --------------------------------------------------------------------------------
 ! R1    R(1,2)                  1.5267         calculate D2E/DX2 analytically  !
 ! R2    R(1,3)                  1.5232         calculate D2E/DX2 analytically  !
 ! R3    R(1,54)                 2.0675         frozen, calculate D2E/DX2 analyt!
 ! R4    R(1,69)                 1.3552         calculate D2E/DX2 analytically  !
 ! R5    R(2,5)                  1.2145         calculate D2E/DX2 analytically  !
 ! R6    R(2,6)                  1.3015         calculate D2E/DX2 analytically  !
 ! R7    R(3,4)                  1.2146         calculate D2E/DX2 analytically  !
 ! R8    R(3,7)                  1.3022         calculate D2E/DX2 analytically  !
 ! R9    R(4,68)                 2.4997         calculate D2E/DX2 analytically  !
 ! R10   R(5,68)                 2.5111         calculate D2E/DX2 analytically  !
 ! R11   R(6,8)                  1.4377         calculate D2E/DX2 analytically  !
 ! R12   R(7,9)                  1.4403         calculate D2E/DX2 analytically  !
 ! R13   R(8,10)                 1.0951         calculate D2E/DX2 analytically  !
 ! R14   R(8,11)                 1.0972         calculate D2E/DX2 analytically  !
 ! R15   R(8,12)                 1.0982         calculate D2E/DX2 analytically  !
 ! R16   R(9,13)                 1.0939         calculate D2E/DX2 analytically  !
 ! R17   R(9,14)                 1.0972         calculate D2E/DX2 analytically  !
 ! R18   R(9,15)                 1.0982         calculate D2E/DX2 analytically  !
 ! R19   R(16,20)                1.4866         calculate D2E/DX2 analytically  !
 ! R20   R(16,68)                2.5021         calculate D2E/DX2 analytically  !
 ! R21   R(17,21)                1.4779         calculate D2E/DX2 analytically  !
 ! R22   R(17,68)                2.4969         calculate D2E/DX2 analytically  !
 ! R23   R(18,19)                1.4831         calculate D2E/DX2 analytically  !
 ! R24   R(18,68)                2.5151         calculate D2E/DX2 analytically  !
 ! R25   R(19,22)                1.4847         calculate D2E/DX2 analytically  !
 ! R26   R(19,23)                1.448          calculate D2E/DX2 analytically  !
 ! R27   R(19,30)                1.8385         calculate D2E/DX2 analytically  !
 ! R28   R(19,68)                3.062          calculate D2E/DX2 analytically  !
 ! R29   R(20,24)                1.4815         calculate D2E/DX2 analytically  !
 ! R30   R(20,25)                1.4492         calculate D2E/DX2 analytically  !
 ! R31   R(20,29)                1.8359         calculate D2E/DX2 analytically  !
 ! R32   R(20,68)                3.0561         calculate D2E/DX2 analytically  !
 ! R33   R(21,26)                1.4828         calculate D2E/DX2 analytically  !
 ! R34   R(21,27)                1.4561         calculate D2E/DX2 analytically  !
 ! R35   R(21,28)                1.8351         calculate D2E/DX2 analytically  !
 ! R36   R(22,68)                2.513          calculate D2E/DX2 analytically  !
 ! R37   R(24,68)                2.5219         calculate D2E/DX2 analytically  !
 ! R38   R(28,31)                1.3276         calculate D2E/DX2 analytically  !
 ! R39   R(28,32)                1.319          calculate D2E/DX2 analytically  !
 ! R40   R(28,33)                1.3223         calculate D2E/DX2 analytically  !
 ! R41   R(29,34)                1.3279         calculate D2E/DX2 analytically  !
 ! R42   R(29,35)                1.3236         calculate D2E/DX2 analytically  !
 ! R43   R(29,36)                1.323          calculate D2E/DX2 analytically  !
 ! R44   R(30,37)                1.3242         calculate D2E/DX2 analytically  !
 ! R45   R(30,38)                1.324          calculate D2E/DX2 analytically  !
 ! R46   R(30,39)                1.3271         calculate D2E/DX2 analytically  !
 ! R47   R(40,41)                1.5718         calculate D2E/DX2 analytically  !
 ! R48   R(40,56)                1.1006         calculate D2E/DX2 analytically  !
 ! R49   R(40,57)                1.5154         calculate D2E/DX2 analytically  !
 ! R50   R(40,69)                1.4281         calculate D2E/DX2 analytically  !
 ! R51   R(41,42)                1.4723         calculate D2E/DX2 analytically  !
 ! R52   R(41,43)                1.4813         calculate D2E/DX2 analytically  !
 ! R53   R(41,52)                1.4768         calculate D2E/DX2 analytically  !
 ! R54   R(42,50)                1.1558         calculate D2E/DX2 analytically  !
 ! R55   R(43,51)                1.1559         calculate D2E/DX2 analytically  !
 ! R56   R(44,46)                1.3699         calculate D2E/DX2 analytically  !
 ! R57   R(44,47)                1.0898         calculate D2E/DX2 analytically  !
 ! R58   R(44,54)                1.4276         calculate D2E/DX2 analytically  !
 ! R59   R(45,46)                1.4219         calculate D2E/DX2 analytically  !
 ! R60   R(45,48)                1.0919         calculate D2E/DX2 analytically  !
 ! R61   R(45,53)                1.3131         calculate D2E/DX2 analytically  !
 ! R62   R(46,49)                1.0898         calculate D2E/DX2 analytically  !
 ! R63   R(52,53)                1.3189         calculate D2E/DX2 analytically  !
 ! R64   R(52,54)                1.3831         calculate D2E/DX2 analytically  !
 ! R65   R(54,55)                1.0952         calculate D2E/DX2 analytically  !
 ! R66   R(57,58)                1.4041         calculate D2E/DX2 analytically  !
 ! R67   R(57,59)                1.3997         calculate D2E/DX2 analytically  !
 ! R68   R(58,60)                1.3949         calculate D2E/DX2 analytically  !
 ! R69   R(58,61)                1.0937         calculate D2E/DX2 analytically  !
 ! R70   R(59,62)                1.3973         calculate D2E/DX2 analytically  !
 ! R71   R(59,63)                1.0896         calculate D2E/DX2 analytically  !
 ! R72   R(60,64)                1.3971         calculate D2E/DX2 analytically  !
 ! R73   R(60,65)                1.0909         calculate D2E/DX2 analytically  !
 ! R74   R(62,64)                1.3953         calculate D2E/DX2 analytically  !
 ! R75   R(62,66)                1.0919         calculate D2E/DX2 analytically  !
 ! R76   R(64,67)                1.092          calculate D2E/DX2 analytically  !
 ! A1    A(2,1,3)              114.1714         calculate D2E/DX2 analytically  !
 ! A2    A(2,1,69)             120.2818         calculate D2E/DX2 analytically  !
 ! A3    A(3,1,69)             106.9038         calculate D2E/DX2 analytically  !
 ! A4    A(1,2,5)              122.4312         calculate D2E/DX2 analytically  !
 ! A5    A(1,2,6)              113.0045         calculate D2E/DX2 analytically  !
 ! A6    A(5,2,6)              124.5615         calculate D2E/DX2 analytically  !
 ! A7    A(1,3,4)              121.2983         calculate D2E/DX2 analytically  !
 ! A8    A(1,3,7)              113.5578         calculate D2E/DX2 analytically  !
 ! A9    A(4,3,7)              125.0214         calculate D2E/DX2 analytically  !
 ! A10   A(3,4,68)             123.9949         calculate D2E/DX2 analytically  !
 ! A11   A(2,5,68)             134.3144         calculate D2E/DX2 analytically  !
 ! A12   A(2,6,8)              117.3733         calculate D2E/DX2 analytically  !
 ! A13   A(3,7,9)              116.0892         calculate D2E/DX2 analytically  !
 ! A14   A(6,8,10)             106.0867         calculate D2E/DX2 analytically  !
 ! A15   A(6,8,11)             109.1435         calculate D2E/DX2 analytically  !
 ! A16   A(6,8,12)             109.1789         calculate D2E/DX2 analytically  !
 ! A17   A(10,8,11)            110.8644         calculate D2E/DX2 analytically  !
 ! A18   A(10,8,12)            110.8994         calculate D2E/DX2 analytically  !
 ! A19   A(11,8,12)            110.5438         calculate D2E/DX2 analytically  !
 ! A20   A(7,9,13)             106.1207         calculate D2E/DX2 analytically  !
 ! A21   A(7,9,14)             109.9716         calculate D2E/DX2 analytically  !
 ! A22   A(7,9,15)             108.6282         calculate D2E/DX2 analytically  !
 ! A23   A(13,9,14)            110.9137         calculate D2E/DX2 analytically  !
 ! A24   A(13,9,15)            111.2601         calculate D2E/DX2 analytically  !
 ! A25   A(14,9,15)            109.8561         calculate D2E/DX2 analytically  !
 ! A26   A(21,17,68)           105.1208         calculate D2E/DX2 analytically  !
 ! A27   A(18,19,22)           109.1086         calculate D2E/DX2 analytically  !
 ! A28   A(18,19,23)           116.9217         calculate D2E/DX2 analytically  !
 ! A29   A(18,19,30)           104.2306         calculate D2E/DX2 analytically  !
 ! A30   A(22,19,23)           116.9327         calculate D2E/DX2 analytically  !
 ! A31   A(22,19,30)           103.8452         calculate D2E/DX2 analytically  !
 ! A32   A(23,19,30)           103.9335         calculate D2E/DX2 analytically  !
 ! A33   A(23,19,68)           137.3897         calculate D2E/DX2 analytically  !
 ! A34   A(30,19,68)           118.6763         calculate D2E/DX2 analytically  !
 ! A35   A(16,20,24)           109.5372         calculate D2E/DX2 analytically  !
 ! A36   A(16,20,25)           116.6236         calculate D2E/DX2 analytically  !
 ! A37   A(16,20,29)           102.7954         calculate D2E/DX2 analytically  !
 ! A38   A(24,20,25)           117.3723         calculate D2E/DX2 analytically  !
 ! A39   A(24,20,29)           102.945          calculate D2E/DX2 analytically  !
 ! A40   A(25,20,29)           105.3869         calculate D2E/DX2 analytically  !
 ! A41   A(25,20,68)           140.7428         calculate D2E/DX2 analytically  !
 ! A42   A(29,20,68)           113.8605         calculate D2E/DX2 analytically  !
 ! A43   A(17,21,26)           110.8716         calculate D2E/DX2 analytically  !
 ! A44   A(17,21,27)           116.3368         calculate D2E/DX2 analytically  !
 ! A45   A(17,21,28)           104.8692         calculate D2E/DX2 analytically  !
 ! A46   A(26,21,27)           115.3496         calculate D2E/DX2 analytically  !
 ! A47   A(26,21,28)           103.2812         calculate D2E/DX2 analytically  !
 ! A48   A(27,21,28)           104.3974         calculate D2E/DX2 analytically  !
 ! A49   A(21,28,31)           108.6561         calculate D2E/DX2 analytically  !
 ! A50   A(21,28,32)           110.5919         calculate D2E/DX2 analytically  !
 ! A51   A(21,28,33)           109.7791         calculate D2E/DX2 analytically  !
 ! A52   A(31,28,32)           109.237          calculate D2E/DX2 analytically  !
 ! A53   A(31,28,33)           109.0744         calculate D2E/DX2 analytically  !
 ! A54   A(32,28,33)           109.4754         calculate D2E/DX2 analytically  !
 ! A55   A(20,29,34)           109.3884         calculate D2E/DX2 analytically  !
 ! A56   A(20,29,35)           110.1365         calculate D2E/DX2 analytically  !
 ! A57   A(20,29,36)           110.1678         calculate D2E/DX2 analytically  !
 ! A58   A(34,29,35)           108.9557         calculate D2E/DX2 analytically  !
 ! A59   A(34,29,36)           108.999          calculate D2E/DX2 analytically  !
 ! A60   A(35,29,36)           109.1674         calculate D2E/DX2 analytically  !
 ! A61   A(19,30,37)           111.0947         calculate D2E/DX2 analytically  !
 ! A62   A(19,30,38)           109.5812         calculate D2E/DX2 analytically  !
 ! A63   A(19,30,39)           109.4406         calculate D2E/DX2 analytically  !
 ! A64   A(37,30,38)           108.8685         calculate D2E/DX2 analytically  !
 ! A65   A(37,30,39)           108.9291         calculate D2E/DX2 analytically  !
 ! A66   A(38,30,39)           108.89           calculate D2E/DX2 analytically  !
 ! A67   A(41,40,56)           105.2403         calculate D2E/DX2 analytically  !
 ! A68   A(41,40,57)           120.0451         calculate D2E/DX2 analytically  !
 ! A69   A(41,40,69)           104.3403         calculate D2E/DX2 analytically  !
 ! A70   A(56,40,57)           108.6634         calculate D2E/DX2 analytically  !
 ! A71   A(56,40,69)           103.4743         calculate D2E/DX2 analytically  !
 ! A72   A(57,40,69)           113.5779         calculate D2E/DX2 analytically  !
 ! A73   A(40,41,42)           113.3297         calculate D2E/DX2 analytically  !
 ! A74   A(40,41,43)           106.6268         calculate D2E/DX2 analytically  !
 ! A75   A(40,41,52)           109.5364         calculate D2E/DX2 analytically  !
 ! A76   A(42,41,43)           106.9629         calculate D2E/DX2 analytically  !
 ! A77   A(42,41,52)           111.1116         calculate D2E/DX2 analytically  !
 ! A78   A(43,41,52)           109.0703         calculate D2E/DX2 analytically  !
 ! A79   A(46,44,47)           122.7658         calculate D2E/DX2 analytically  !
 ! A80   A(46,44,54)           118.7368         calculate D2E/DX2 analytically  !
 ! A81   A(47,44,54)           118.4964         calculate D2E/DX2 analytically  !
 ! A82   A(46,45,48)           121.5964         calculate D2E/DX2 analytically  !
 ! A83   A(46,45,53)           122.7772         calculate D2E/DX2 analytically  !
 ! A84   A(48,45,53)           115.6194         calculate D2E/DX2 analytically  !
 ! A85   A(44,46,45)           118.622          calculate D2E/DX2 analytically  !
 ! A86   A(44,46,49)           121.3673         calculate D2E/DX2 analytically  !
 ! A87   A(45,46,49)           120.0037         calculate D2E/DX2 analytically  !
 ! A88   A(41,52,53)           115.9857         calculate D2E/DX2 analytically  !
 ! A89   A(41,52,54)           117.9244         calculate D2E/DX2 analytically  !
 ! A90   A(53,52,54)           125.5336         calculate D2E/DX2 analytically  !
 ! A91   A(45,53,52)           117.7764         calculate D2E/DX2 analytically  !
 ! A92   A(44,54,52)           116.0837         calculate D2E/DX2 analytically  !
 ! A93   A(44,54,55)           119.0734         calculate D2E/DX2 analytically  !
 ! A94   A(52,54,55)           115.4775         calculate D2E/DX2 analytically  !
 ! A95   A(40,57,58)           115.302          calculate D2E/DX2 analytically  !
 ! A96   A(40,57,59)           125.1903         calculate D2E/DX2 analytically  !
 ! A97   A(58,57,59)           119.4535         calculate D2E/DX2 analytically  !
 ! A98   A(57,58,60)           120.3619         calculate D2E/DX2 analytically  !
 ! A99   A(57,58,61)           119.9886         calculate D2E/DX2 analytically  !
 ! A100  A(60,58,61)           119.6492         calculate D2E/DX2 analytically  !
 ! A101  A(57,59,62)           119.8931         calculate D2E/DX2 analytically  !
 ! A102  A(57,59,63)           121.8127         calculate D2E/DX2 analytically  !
 ! A103  A(62,59,63)           118.2913         calculate D2E/DX2 analytically  !
 ! A104  A(58,60,64)           120.0436         calculate D2E/DX2 analytically  !
 ! A105  A(58,60,65)           119.5597         calculate D2E/DX2 analytically  !
 ! A106  A(64,60,65)           120.3965         calculate D2E/DX2 analytically  !
 ! A107  A(59,62,64)           120.5504         calculate D2E/DX2 analytically  !
 ! A108  A(59,62,66)           119.206          calculate D2E/DX2 analytically  !
 ! A109  A(64,62,66)           120.2432         calculate D2E/DX2 analytically  !
 ! A110  A(60,64,62)           119.6886         calculate D2E/DX2 analytically  !
 ! A111  A(60,64,67)           120.1418         calculate D2E/DX2 analytically  !
 ! A112  A(62,64,67)           120.1687         calculate D2E/DX2 analytically  !
 ! A113  A(4,68,5)              67.7301         calculate D2E/DX2 analytically  !
 ! A114  A(4,68,16)             79.6086         calculate D2E/DX2 analytically  !
 ! A115  A(4,68,17)            116.3126         calculate D2E/DX2 analytically  !
 ! A116  A(4,68,18)             90.695          calculate D2E/DX2 analytically  !
 ! A117  A(4,68,19)            118.3894         calculate D2E/DX2 analytically  !
 ! A118  A(4,68,20)             74.4432         calculate D2E/DX2 analytically  !
 ! A119  A(4,68,22)            143.8617         calculate D2E/DX2 analytically  !
 ! A120  A(4,68,24)             73.965          calculate D2E/DX2 analytically  !
 ! A121  A(5,68,16)            131.5496         calculate D2E/DX2 analytically  !
 ! A122  A(5,68,17)             77.853          calculate D2E/DX2 analytically  !
 ! A123  A(5,68,18)             77.5316         calculate D2E/DX2 analytically  !
 ! A124  A(5,68,19)             82.8992         calculate D2E/DX2 analytically  !
 ! A125  A(5,68,20)            141.501          calculate D2E/DX2 analytically  !
 ! A126  A(5,68,22)             87.3181         calculate D2E/DX2 analytically  !
 ! A127  A(5,68,24)            135.7293         calculate D2E/DX2 analytically  !
 ! A128  A(16,68,17)            86.3562         calculate D2E/DX2 analytically  !
 ! A129  A(16,68,18)           139.3618         calculate D2E/DX2 analytically  !
 ! A130  A(16,68,19)           145.3775         calculate D2E/DX2 analytically  !
 ! A131  A(16,68,22)           135.2658         calculate D2E/DX2 analytically  !
 ! A132  A(16,68,24)            57.7044         calculate D2E/DX2 analytically  !
 ! A133  A(17,68,18)           132.2098         calculate D2E/DX2 analytically  !
 ! A134  A(17,68,19)           107.8224         calculate D2E/DX2 analytically  !
 ! A135  A(17,68,20)           114.3178         calculate D2E/DX2 analytically  !
 ! A136  A(17,68,22)            81.0825         calculate D2E/DX2 analytically  !
 ! A137  A(17,68,24)           141.3059         calculate D2E/DX2 analytically  !
 ! A138  A(18,68,20)           110.4873         calculate D2E/DX2 analytically  !
 ! A139  A(18,68,22)            57.4827         calculate D2E/DX2 analytically  !
 ! A140  A(18,68,24)            81.6652         calculate D2E/DX2 analytically  !
 ! A141  A(19,68,20)           122.7709         calculate D2E/DX2 analytically  !
 ! A142  A(19,68,24)            96.9058         calculate D2E/DX2 analytically  !
 ! A143  A(20,68,22)           129.5006         calculate D2E/DX2 analytically  !
 ! A144  A(22,68,24)           113.2427         calculate D2E/DX2 analytically  !
 ! A145  A(1,69,40)            124.3898         calculate D2E/DX2 analytically  !
 ! A146  L(41,42,50,48,-1)     184.2541         calculate D2E/DX2 analytically  !
 ! A147  L(41,43,51,3,-1)      180.4037         calculate D2E/DX2 analytically  !
 ! A148  L(41,42,50,48,-2)     178.4189         calculate D2E/DX2 analytically  !
 ! A149  L(41,43,51,3,-2)      178.806          calculate D2E/DX2 analytically  !
 ! D1    D(3,1,2,5)            -30.234          calculate D2E/DX2 analytically  !
 ! D2    D(3,1,2,6)            149.1752         calculate D2E/DX2 analytically  !
 ! D3    D(69,1,2,5)            98.9004         calculate D2E/DX2 analytically  !
 ! D4    D(69,1,2,6)           -81.6904         calculate D2E/DX2 analytically  !
 ! D5    D(2,1,3,4)             47.6585         calculate D2E/DX2 analytically  !
 ! D6    D(2,1,3,7)           -136.1718         calculate D2E/DX2 analytically  !
 ! D7    D(69,1,3,4)           -87.9081         calculate D2E/DX2 analytically  !
 ! D8    D(69,1,3,7)            88.2616         calculate D2E/DX2 analytically  !
 ! D9    D(2,1,69,40)           54.2594         calculate D2E/DX2 analytically  !
 ! D10   D(3,1,69,40)         -173.4394         calculate D2E/DX2 analytically  !
 ! D11   D(1,2,5,68)            41.1406         calculate D2E/DX2 analytically  !
 ! D12   D(6,2,5,68)          -138.199          calculate D2E/DX2 analytically  !
 ! D13   D(1,2,6,8)            175.5301         calculate D2E/DX2 analytically  !
 ! D14   D(5,2,6,8)             -5.0754         calculate D2E/DX2 analytically  !
 ! D15   D(1,3,4,68)           -70.2102         calculate D2E/DX2 analytically  !
 ! D16   D(7,3,4,68)           114.0779         calculate D2E/DX2 analytically  !
 ! D17   D(1,3,7,9)            176.5436         calculate D2E/DX2 analytically  !
 ! D18   D(4,3,7,9)             -7.4531         calculate D2E/DX2 analytically  !
 ! D19   D(3,4,68,5)            50.0669         calculate D2E/DX2 analytically  !
 ! D20   D(3,4,68,16)          -93.4255         calculate D2E/DX2 analytically  !
 ! D21   D(3,4,68,17)          -12.7928         calculate D2E/DX2 analytically  !
 ! D22   D(3,4,68,18)          126.2814         calculate D2E/DX2 analytically  !
 ! D23   D(3,4,68,19)          118.1558         calculate D2E/DX2 analytically  !
 ! D24   D(3,4,68,20)         -122.621          calculate D2E/DX2 analytically  !
 ! D25   D(3,4,68,22)           99.7859         calculate D2E/DX2 analytically  !
 ! D26   D(3,4,68,24)         -152.5962         calculate D2E/DX2 analytically  !
 ! D27   D(2,5,68,4)           -38.8618         calculate D2E/DX2 analytically  !
 ! D28   D(2,5,68,16)           12.5745         calculate D2E/DX2 analytically  !
 ! D29   D(2,5,68,17)           86.456          calculate D2E/DX2 analytically  !
 ! D30   D(2,5,68,18)         -134.8299         calculate D2E/DX2 analytically  !
 ! D31   D(2,5,68,19)         -163.5264         calculate D2E/DX2 analytically  !
 ! D32   D(2,5,68,20)          -27.5021         calculate D2E/DX2 analytically  !
 ! D33   D(2,5,68,22)          167.9071         calculate D2E/DX2 analytically  !
 ! D34   D(2,5,68,24)          -70.9015         calculate D2E/DX2 analytically  !
 ! D35   D(2,6,8,10)          -176.0516         calculate D2E/DX2 analytically  !
 ! D36   D(2,6,8,11)            64.445          calculate D2E/DX2 analytically  !
 ! D37   D(2,6,8,12)           -56.4879         calculate D2E/DX2 analytically  !
 ! D38   D(3,7,9,13)          -178.998          calculate D2E/DX2 analytically  !
 ! D39   D(3,7,9,14)            60.9767         calculate D2E/DX2 analytically  !
 ! D40   D(3,7,9,15)           -59.2797         calculate D2E/DX2 analytically  !
 ! D41   D(68,17,21,26)         -8.5034         calculate D2E/DX2 analytically  !
 ! D42   D(68,17,21,27)        125.926          calculate D2E/DX2 analytically  !
 ! D43   D(68,17,21,28)       -119.3347         calculate D2E/DX2 analytically  !
 ! D44   D(21,17,68,4)          -3.4148         calculate D2E/DX2 analytically  !
 ! D45   D(21,17,68,5)         -60.8064         calculate D2E/DX2 analytically  !
 ! D46   D(21,17,68,16)         73.1045         calculate D2E/DX2 analytically  !
 ! D47   D(21,17,68,18)       -121.2425         calculate D2E/DX2 analytically  !
 ! D48   D(21,17,68,19)       -139.1514         calculate D2E/DX2 analytically  !
 ! D49   D(21,17,68,20)         80.5661         calculate D2E/DX2 analytically  !
 ! D50   D(21,17,68,22)       -149.9656         calculate D2E/DX2 analytically  !
 ! D51   D(21,17,68,24)         93.7347         calculate D2E/DX2 analytically  !
 ! D52   D(18,19,30,37)        -64.185          calculate D2E/DX2 analytically  !
 ! D53   D(18,19,30,38)        175.4755         calculate D2E/DX2 analytically  !
 ! D54   D(18,19,30,39)         56.1381         calculate D2E/DX2 analytically  !
 ! D55   D(22,19,30,37)         50.0407         calculate D2E/DX2 analytically  !
 ! D56   D(22,19,30,38)        -70.2988         calculate D2E/DX2 analytically  !
 ! D57   D(22,19,30,39)        170.3638         calculate D2E/DX2 analytically  !
 ! D58   D(23,19,30,37)        172.8459         calculate D2E/DX2 analytically  !
 ! D59   D(23,19,30,38)         52.5064         calculate D2E/DX2 analytically  !
 ! D60   D(23,19,30,39)        -66.831          calculate D2E/DX2 analytically  !
 ! D61   D(68,19,30,37)         -6.9343         calculate D2E/DX2 analytically  !
 ! D62   D(68,19,30,38)       -127.2738         calculate D2E/DX2 analytically  !
 ! D63   D(68,19,30,39)        113.3888         calculate D2E/DX2 analytically  !
 ! D64   D(23,19,68,4)         109.9199         calculate D2E/DX2 analytically  !
 ! D65   D(23,19,68,5)         169.8251         calculate D2E/DX2 analytically  !
 ! D66   D(23,19,68,16)         -5.0362         calculate D2E/DX2 analytically  !
 ! D67   D(23,19,68,17)       -115.4103         calculate D2E/DX2 analytically  !
 ! D68   D(23,19,68,20)         20.7592         calculate D2E/DX2 analytically  !
 ! D69   D(23,19,68,24)         34.446          calculate D2E/DX2 analytically  !
 ! D70   D(30,19,68,4)         -70.3952         calculate D2E/DX2 analytically  !
 ! D71   D(30,19,68,5)         -10.49           calculate D2E/DX2 analytically  !
 ! D72   D(30,19,68,16)        174.6488         calculate D2E/DX2 analytically  !
 ! D73   D(30,19,68,17)         64.2747         calculate D2E/DX2 analytically  !
 ! D74   D(30,19,68,20)       -159.5559         calculate D2E/DX2 analytically  !
 ! D75   D(30,19,68,24)       -145.8691         calculate D2E/DX2 analytically  !
 ! D76   D(16,20,29,34)         57.4181         calculate D2E/DX2 analytically  !
 ! D77   D(16,20,29,35)        -62.3062         calculate D2E/DX2 analytically  !
 ! D78   D(16,20,29,36)        177.2149         calculate D2E/DX2 analytically  !
 ! D79   D(24,20,29,34)        -56.4154         calculate D2E/DX2 analytically  !
 ! D80   D(24,20,29,35)       -176.1397         calculate D2E/DX2 analytically  !
 ! D81   D(24,20,29,36)         63.3814         calculate D2E/DX2 analytically  !
 ! D82   D(25,20,29,34)       -179.9579         calculate D2E/DX2 analytically  !
 ! D83   D(25,20,29,35)         60.3178         calculate D2E/DX2 analytically  !
 ! D84   D(25,20,29,36)        -60.1611         calculate D2E/DX2 analytically  !
 ! D85   D(68,20,29,34)          0.9392         calculate D2E/DX2 analytically  !
 ! D86   D(68,20,29,35)       -118.7851         calculate D2E/DX2 analytically  !
 ! D87   D(68,20,29,36)        120.736          calculate D2E/DX2 analytically  !
 ! D88   D(25,20,68,4)           7.0072         calculate D2E/DX2 analytically  !
 ! D89   D(25,20,68,5)          -3.8993         calculate D2E/DX2 analytically  !
 ! D90   D(25,20,68,17)       -105.2721         calculate D2E/DX2 analytically  !
 ! D91   D(25,20,68,18)         91.8106         calculate D2E/DX2 analytically  !
 ! D92   D(25,20,68,19)        121.0708         calculate D2E/DX2 analytically  !
 ! D93   D(25,20,68,22)        155.9812         calculate D2E/DX2 analytically  !
 ! D94   D(29,20,68,4)        -174.3597         calculate D2E/DX2 analytically  !
 ! D95   D(29,20,68,5)         174.7338         calculate D2E/DX2 analytically  !
 ! D96   D(29,20,68,17)         73.361          calculate D2E/DX2 analytically  !
 ! D97   D(29,20,68,18)        -89.5564         calculate D2E/DX2 analytically  !
 ! D98   D(29,20,68,19)        -60.2961         calculate D2E/DX2 analytically  !
 ! D99   D(29,20,68,22)        -25.3857         calculate D2E/DX2 analytically  !
 ! D100  D(17,21,28,31)        175.1566         calculate D2E/DX2 analytically  !
 ! D101  D(17,21,28,32)         55.2667         calculate D2E/DX2 analytically  !
 ! D102  D(17,21,28,33)        -65.637          calculate D2E/DX2 analytically  !
 ! D103  D(26,21,28,31)         58.9621         calculate D2E/DX2 analytically  !
 ! D104  D(26,21,28,32)        -60.9278         calculate D2E/DX2 analytically  !
 ! D105  D(26,21,28,33)        178.1685         calculate D2E/DX2 analytically  !
 ! D106  D(27,21,28,31)        -62.0196         calculate D2E/DX2 analytically  !
 ! D107  D(27,21,28,32)        178.0906         calculate D2E/DX2 analytically  !
 ! D108  D(27,21,28,33)         57.1869         calculate D2E/DX2 analytically  !
 ! D109  D(56,40,41,42)         68.1199         calculate D2E/DX2 analytically  !
 ! D110  D(56,40,41,43)        -49.292          calculate D2E/DX2 analytically  !
 ! D111  D(56,40,41,52)       -167.182          calculate D2E/DX2 analytically  !
 ! D112  D(57,40,41,42)        -54.6142         calculate D2E/DX2 analytically  !
 ! D113  D(57,40,41,43)       -172.0261         calculate D2E/DX2 analytically  !
 ! D114  D(57,40,41,52)         70.0839         calculate D2E/DX2 analytically  !
 ! D115  D(69,40,41,42)        176.7175         calculate D2E/DX2 analytically  !
 ! D116  D(69,40,41,43)         59.3056         calculate D2E/DX2 analytically  !
 ! D117  D(69,40,41,52)        -58.5844         calculate D2E/DX2 analytically  !
 ! D118  D(41,40,57,58)       -169.0272         calculate D2E/DX2 analytically  !
 ! D119  D(41,40,57,59)         13.6794         calculate D2E/DX2 analytically  !
 ! D120  D(56,40,57,58)         69.9157         calculate D2E/DX2 analytically  !
 ! D121  D(56,40,57,59)       -107.3777         calculate D2E/DX2 analytically  !
 ! D122  D(69,40,57,58)        -44.6513         calculate D2E/DX2 analytically  !
 ! D123  D(69,40,57,59)        138.0553         calculate D2E/DX2 analytically  !
 ! D124  D(41,40,69,1)          70.5148         calculate D2E/DX2 analytically  !
 ! D125  D(56,40,69,1)        -179.5928         calculate D2E/DX2 analytically  !
 ! D126  D(57,40,69,1)         -61.9725         calculate D2E/DX2 analytically  !
 ! D127  D(40,41,52,53)       -102.6893         calculate D2E/DX2 analytically  !
 ! D128  D(40,41,52,54)         69.2361         calculate D2E/DX2 analytically  !
 ! D129  D(42,41,52,53)         23.287          calculate D2E/DX2 analytically  !
 ! D130  D(42,41,52,54)       -164.7876         calculate D2E/DX2 analytically  !
 ! D131  D(43,41,52,53)        140.957          calculate D2E/DX2 analytically  !
 ! D132  D(43,41,52,54)        -47.1176         calculate D2E/DX2 analytically  !
 ! D133  D(47,44,46,45)        178.8751         calculate D2E/DX2 analytically  !
 ! D134  D(47,44,46,49)         -0.1653         calculate D2E/DX2 analytically  !
 ! D135  D(54,44,46,45)         -1.4991         calculate D2E/DX2 analytically  !
 ! D136  D(54,44,46,49)        179.4605         calculate D2E/DX2 analytically  !
 ! D137  D(46,44,54,52)          6.0045         calculate D2E/DX2 analytically  !
 ! D138  D(46,44,54,55)        151.1053         calculate D2E/DX2 analytically  !
 ! D139  D(47,44,54,52)       -174.3536         calculate D2E/DX2 analytically  !
 ! D140  D(47,44,54,55)        -29.2528         calculate D2E/DX2 analytically  !
 ! D141  D(48,45,46,44)        179.6023         calculate D2E/DX2 analytically  !
 ! D142  D(48,45,46,49)         -1.3438         calculate D2E/DX2 analytically  !
 ! D143  D(53,45,46,44)         -1.4023         calculate D2E/DX2 analytically  !
 ! D144  D(53,45,46,49)        177.6515         calculate D2E/DX2 analytically  !
 ! D145  D(46,45,53,52)         -0.6155         calculate D2E/DX2 analytically  !
 ! D146  D(48,45,53,52)        178.4355         calculate D2E/DX2 analytically  !
 ! D147  D(41,52,53,45)        177.2134         calculate D2E/DX2 analytically  !
 ! D148  D(54,52,53,45)          5.9858         calculate D2E/DX2 analytically  !
 ! D149  D(41,52,54,44)       -179.746          calculate D2E/DX2 analytically  !
 ! D150  D(41,52,54,55)         33.8896         calculate D2E/DX2 analytically  !
 ! D151  D(53,52,54,44)         -8.6718         calculate D2E/DX2 analytically  !
 ! D152  D(53,52,54,55)       -155.0362         calculate D2E/DX2 analytically  !
 ! D153  D(40,57,58,60)       -177.0344         calculate D2E/DX2 analytically  !
 ! D154  D(40,57,58,61)          2.7776         calculate D2E/DX2 analytically  !
 ! D155  D(59,57,58,60)          0.4254         calculate D2E/DX2 analytically  !
 ! D156  D(59,57,58,61)       -179.7626         calculate D2E/DX2 analytically  !
 ! D157  D(40,57,59,62)        176.2731         calculate D2E/DX2 analytically  !
 ! D158  D(40,57,59,63)         -4.3578         calculate D2E/DX2 analytically  !
 ! D159  D(58,57,59,62)         -0.9166         calculate D2E/DX2 analytically  !
 ! D160  D(58,57,59,63)        178.4525         calculate D2E/DX2 analytically  !
 ! D161  D(57,58,60,64)          0.4558         calculate D2E/DX2 analytically  !
 ! D162  D(57,58,60,65)       -179.7165         calculate D2E/DX2 analytically  !
 ! D163  D(61,58,60,64)       -179.3568         calculate D2E/DX2 analytically  !
 ! D164  D(61,58,60,65)          0.4709         calculate D2E/DX2 analytically  !
 ! D165  D(57,59,62,64)          0.535          calculate D2E/DX2 analytically  !
 ! D166  D(57,59,62,66)       -179.7047         calculate D2E/DX2 analytically  !
 ! D167  D(63,59,62,64)       -178.8562         calculate D2E/DX2 analytically  !
 ! D168  D(63,59,62,66)          0.9041         calculate D2E/DX2 analytically  !
 ! D169  D(58,60,64,62)         -0.8415         calculate D2E/DX2 analytically  !
 ! D170  D(58,60,64,67)        179.4987         calculate D2E/DX2 analytically  !
 ! D171  D(65,60,64,62)        179.3322         calculate D2E/DX2 analytically  !
 ! D172  D(65,60,64,67)         -0.3276         calculate D2E/DX2 analytically  !
 ! D173  D(59,62,64,60)          0.3479         calculate D2E/DX2 analytically  !
 ! D174  D(59,62,64,67)       -179.9924         calculate D2E/DX2 analytically  !
 ! D175  D(66,62,64,60)       -179.41           calculate D2E/DX2 analytically  !
 ! D176  D(66,62,64,67)          0.2498         calculate D2E/DX2 analytically  !
 --------------------------------------------------------------------------------
 Trust Radius=3.00D-01 FncErr=1.00D-07 GrdErr=1.00D-06 EigMax=2.50D+02 EigMin=1.00D-04
 Number of steps in this run=    411 maximum allowed number of steps=    414.
 GradGradGradGradGradGradGradGradGradGradGradGradGradGradGradGradGradGrad

 Stoichiometry    C22H16F9N4O14S3Yb(2)
 Framework group  C1[X(C22H16F9N4O14S3Yb)]
 Deg. of freedom   201
 Full point group                 C1      NOp   1
 Largest Abelian subgroup         C1      NOp   1
 Largest concise Abelian subgroup C1      NOp   1
                         Standard orientation:                         
 ---------------------------------------------------------------------
 Center     Atomic      Atomic             Coordinates (Angstroms)
 Number     Number       Type             X           Y           Z
 ---------------------------------------------------------------------
      1          6           0        1.823877   -0.772648   -0.952794
      2          6           0        1.634918    0.153095    0.246442
      3          6           0        0.524089   -1.315055   -1.532918
      4          8           0       -0.417917   -0.583615   -1.762982
      5          8           0        0.649157    0.849260    0.382893
      6          8           0        2.624180    0.100350    1.090572
      7          8           0        0.570792   -2.585076   -1.816615
      8          6           0        2.590672    1.007175    2.205742
      9          6           0       -0.653643   -3.172321   -2.296527
     10          1           0        3.530713    0.857186    2.747181
     11          1           0        1.730348    0.763821    2.841646
     12          1           0        2.514191    2.036714    1.831367
     13          1           0       -0.437327   -4.231517   -2.463929
     14          1           0       -0.963371   -2.683741   -3.228797
     15          1           0       -1.429663   -3.040561   -1.530653
     16          8           0       -3.147876   -1.570005   -0.411289
     17          8           0       -1.507099   -0.354508    2.333074
     18          8           0       -1.415800    2.761199   -1.025948
     19         16           0       -1.874280    3.560747    0.136045
     20         16           0       -3.763503   -1.124007   -1.688809
     21         16           0       -0.552185   -1.475771    2.209913
     22          8           0       -2.183930    2.645945    1.263683
     23          8           0       -2.826332    4.618630   -0.130705
     24          8           0       -3.311222    0.251304   -2.003146
     25          8           0       -3.777328   -2.085077   -2.773364
     26          8           0       -0.299464   -1.800377    0.785365
     27          8           0        0.632377   -1.411169    3.054228
     28          6           0       -1.468348   -2.943797    2.820696
     29          6           0       -5.524537   -0.882854   -1.229141
     30          6           0       -0.366550    4.452448    0.694221
     31          9           0       -0.711443   -4.020207    2.644807
     32          9           0       -2.598607   -3.094217    2.157597
     33          9           0       -1.728592   -2.804455    4.109607
     34          9           0       -5.604398   -0.007937   -0.233375
     35          9           0       -6.054296   -2.030581   -0.836587
     36          9           0       -6.206988   -0.420890   -2.264167
     37          9           0        0.555993    3.605663    1.124795
     38          9           0       -0.679829    5.281071    1.678211
     39          9           0        0.131185    5.154119   -0.316326
     40          6           0        3.945424    0.055276   -1.888628
     41          6           0        4.749417   -1.244375   -1.521236
     42          6           0        6.202633   -1.025299   -1.431899
     43          6           0        4.524569   -2.207732   -2.623763
     44          6           0        2.478513   -2.907538    0.942991
     45          6           0        4.470933   -2.037745    1.961797
     46          6           0        3.231045   -2.724769    2.072948
     47          1           0        1.527385   -3.439472    0.947451
     48          1           0        5.106266   -1.859583    2.831809
     49          1           0        2.904578   -3.107024    3.039923
     50          7           0        7.347789   -0.870127   -1.451284
     51          7           0        4.356987   -2.942250   -3.500453
     52          7           0        4.219365   -1.814805   -0.266466
     53          7           0        4.937928   -1.594443    0.817383
     54          6           0        2.954174   -2.372967   -0.292374
     55          1           0        2.677167   -2.868998   -1.228704
     56          1           0        4.226660    0.285472   -2.927473
     57          6           0        4.107307    1.309192   -1.053186
     58          6           0        3.176758    2.327995   -1.313445
     59          6           0        5.121817    1.527214   -0.113845
     60          6           0        3.266208    3.551168   -0.648967
     61          1           0        2.378161    2.165659   -2.042857
     62          6           0        5.211956    2.758420    0.540708
     63          1           0        5.848902    0.755121    0.135932
     64          6           0        4.291042    3.772221    0.274534
     65          1           0        2.533478    4.331950   -0.857822
     66          1           0        6.010721    2.918033    1.267838
     67          1           0        4.367411    4.732067    0.789583
     68         70           0       -1.809317    0.502106    0.007229
     69          8           0        2.591800   -0.385909   -2.000310
 ---------------------------------------------------------------------
 Rotational constants (GHZ):           0.0649470           0.0408835           0.0335704
 General basis read from cards:  (5D, 7F)
 ======================================================================================================
                                       Pseudopotential Parameters
 ======================================================================================================
  Center     Atomic      Valence      Angular      Power
  Number     Number     Electrons     Momentum     of R      Exponent        Coefficient   SO-Coeffient
 ======================================================================================================
    1          6
                                   No pseudopotential on this center.
    2          6
                                   No pseudopotential on this center.
    3          6
                                   No pseudopotential on this center.
    4          8
                                   No pseudopotential on this center.
    5          8
                                   No pseudopotential on this center.
    6          8
                                   No pseudopotential on this center.
    7          8
                                   No pseudopotential on this center.
    8          6
                                   No pseudopotential on this center.
    9          6
                                   No pseudopotential on this center.
   10          1
                                   No pseudopotential on this center.
   11          1
                                   No pseudopotential on this center.
   12          1
                                   No pseudopotential on this center.
   13          1
                                   No pseudopotential on this center.
   14          1
                                   No pseudopotential on this center.
   15          1
                                   No pseudopotential on this center.
   16          8
                                   No pseudopotential on this center.
   17          8
                                   No pseudopotential on this center.
   18          8
                                   No pseudopotential on this center.
   19         16
                                   No pseudopotential on this center.
   20         16
                                   No pseudopotential on this center.
   21         16
                                   No pseudopotential on this center.
   22          8
                                   No pseudopotential on this center.
   23          8
                                   No pseudopotential on this center.
   24          8
                                   No pseudopotential on this center.
   25          8
                                   No pseudopotential on this center.
   26          8
                                   No pseudopotential on this center.
   27          8
                                   No pseudopotential on this center.
   28          6
                                   No pseudopotential on this center.
   29          6
                                   No pseudopotential on this center.
   30          6
                                   No pseudopotential on this center.
   31          9
                                   No pseudopotential on this center.
   32          9
                                   No pseudopotential on this center.
   33          9
                                   No pseudopotential on this center.
   34          9
                                   No pseudopotential on this center.
   35          9
                                   No pseudopotential on this center.
   36          9
                                   No pseudopotential on this center.
   37          9
                                   No pseudopotential on this center.
   38          9
                                   No pseudopotential on this center.
   39          9
                                   No pseudopotential on this center.
   40          6
                                   No pseudopotential on this center.
   41          6
                                   No pseudopotential on this center.
   42          6
                                   No pseudopotential on this center.
   43          6
                                   No pseudopotential on this center.
   44          6
                                   No pseudopotential on this center.
   45          6
                                   No pseudopotential on this center.
   46          6
                                   No pseudopotential on this center.
   47          1
                                   No pseudopotential on this center.
   48          1
                                   No pseudopotential on this center.
   49          1
                                   No pseudopotential on this center.
   50          7
                                   No pseudopotential on this center.
   51          7
                                   No pseudopotential on this center.
   52          7
                                   No pseudopotential on this center.
   53          7
                                   No pseudopotential on this center.
   54          6
                                   No pseudopotential on this center.
   55          1
                                   No pseudopotential on this center.
   56          1
                                   No pseudopotential on this center.
   57          6
                                   No pseudopotential on this center.
   58          6
                                   No pseudopotential on this center.
   59          6
                                   No pseudopotential on this center.
   60          6
                                   No pseudopotential on this center.
   61          1
                                   No pseudopotential on this center.
   62          6
                                   No pseudopotential on this center.
   63          1
                                   No pseudopotential on this center.
   64          6
                                   No pseudopotential on this center.
   65          1
                                   No pseudopotential on this center.
   66          1
                                   No pseudopotential on this center.
   67          1
                                   No pseudopotential on this center.
   68         70           42
                                      H and up 
                                                     2        1.0000000        0.00000000    0.00000000
                                      S - H
                                                     2       32.4244840      891.01377700    0.00000000
                                      P - H
                                                     2       18.6562320      264.03695300    0.00000000
                                      D - H
                                                     2       10.4902220       73.92391900    0.00000000
                                      F - H
                                                     2       20.7741830      -39.59217300    0.00000000
                                      G - H
                                                     2       28.4310280      -34.63863800    0.00000000
   69          8
                                   No pseudopotential on this center.
 ======================================================================================================
 There are   991 symmetry adapted cartesian basis functions of A   symmetry.
 There are   916 symmetry adapted basis functions of A   symmetry.
   916 basis functions,  1662 primitive gaussians,   991 cartesian basis functions
   230 alpha electrons      229 beta electrons
       nuclear repulsion energy     11686.3963620227 Hartrees.
 NAtoms=   69 NActive=   69 NUniq=   69 SFac= 1.00D+00 NAtFMM=   60 NAOKFM=T Big=T
 Integral buffers will be    131072 words long.
 Raffenetti 2 integral format.
 Two-electron integral symmetry is turned on.
 One-electron integrals computed using PRISM.
   1 Symmetry operations used in ECPInt.
 ECPInt:  NShTT=   77815 NPrTT=  297642 LenC2=   61076 LenP2D=  142635.
 LDataN:  DoStor=T MaxTD1= 9 Len=  602
 NBasis=   916 RedAO= T EigKep=  2.10D-04  NBF=   916
 NBsUse=   916 1.00D-06 EigRej= -1.00D+00 NBFU=   916
 Defaulting to unpruned grid for atomic number  70.
 ExpMin= 2.50D-02 ExpMax= 9.20D+04 ExpMxC= 1.38D+04 IAcc=3 IRadAn=         5 AccDes= 0.00D+00
 Harris functional with IExCor= 1009 and IRadAn=       5 diagonalized for initial guess.
 HarFok:  IExCor= 1009 AccDes= 0.00D+00 IRadAn=         5 IDoV= 1 UseB2=F ITyADJ=14
 ICtDFT=  3500011 ScaDFX=  1.000000  1.000000  1.000000  1.000000
 Defaulting to unpruned grid for atomic number  70.
 FoFCou: FMM=F IPFlag=           0 FMFlag=      100000 FMFlg1=        2001
         NFxFlg=           0 DoJE=T BraDBF=F KetDBF=T FulRan=T
         wScrn=  0.000000 ICntrl=       500 IOpCl=  0 I1Cent=   200000004 NGrid=           0
         NMat0=    1 NMatS0=      1 NMatT0=    0 NMatD0=    1 NMtDS0=    0 NMtDT0=    0
 Petite list used in FoFCou.
 Initial guess <Sx>= 0.0000 <Sy>= 0.0000 <Sz>= 0.5000 <S**2>= 0.7500 S= 0.5000
 Requested convergence on RMS density matrix=1.00D-08 within 500 cycles.
 Requested convergence on MAX density matrix=1.00D-06.
 Requested convergence on             energy=1.00D-06.
 No special actions if energy rises.
 Defaulting to unpruned grid for atomic number  70.
 Defaulting to unpruned grid for atomic number  70.
 Defaulting to unpruned grid for atomic number  70.
 Defaulting to unpruned grid for atomic number  70.
 Defaulting to unpruned grid for atomic number  70.
 Defaulting to unpruned grid for atomic number  70.
 Defaulting to unpruned grid for atomic number  70.
 Defaulting to unpruned grid for atomic number  70.
 Defaulting to unpruned grid for atomic number  70.
 Defaulting to unpruned grid for atomic number  70.
 Defaulting to unpruned grid for atomic number  70.
 Defaulting to unpruned grid for atomic number  70.
 Defaulting to unpruned grid for atomic number  70.
 Defaulting to unpruned grid for atomic number  70.
 Defaulting to unpruned grid for atomic number  70.
 Defaulting to unpruned grid for atomic number  70.
 Defaulting to unpruned grid for atomic number  70.
 Defaulting to unpruned grid for atomic number  70.
 Defaulting to unpruned grid for atomic number  70.
 Defaulting to unpruned grid for atomic number  70.
 Defaulting to unpruned grid for atomic number  70.
 Defaulting to unpruned grid for atomic number  70.
 Defaulting to unpruned grid for atomic number  70.
 Defaulting to unpruned grid for atomic number  70.
 EnCoef did     3 forward-backward iterations
 EnCoef did   100 forward-backward iterations
 EnCoef did     5 forward-backward iterations
 Restarting incremental Fock formation.
 SCF Done:  E(UMN15) =  -5368.70180526     A.U. after   27 cycles
            NFock= 27  Conv=0.70D-08     -V/T= 2.0908
 <Sx>= 0.0000 <Sy>= 0.0000 <Sz>= 0.5000 <S**2>= 0.7597 S= 0.5048
 <L.S>=  0.00000000000    
 Annihilation of the first spin contaminant:
 S**2 before annihilation     0.7597,   after     0.7501
 DoSCS=F DFT=T ScalE2(SS,OS)=  1.000000  1.000000
 Range of M.O.s used for correlation:     1   916
 NBasis=   916 NAE=   230 NBE=   229 NFC=     0 NFV=     0
 NROrb=    916 NOA=   230 NOB=   229 NVA=   686 NVB=   687

 **** Warning!!: The largest alpha MO coefficient is  0.13935292D+02


 **** Warning!!: The largest beta MO coefficient is  0.13812276D+02


 **** Warning!!: The smallest beta delta epsilon is  0.68738175D-01

   1 Symmetry operations used in ECPInt.
 ECPInt:  NShTT=   77815 NPrTT=  297642 LenC2=   61076 LenP2D=  142635.
 LDataN:  DoStor=T MaxTD1=10 Len=  848
 Symmetrizing basis deriv contribution to polar:
 IMax=3 JMax=2 DiffMx= 0.00D+00
 G2DrvN: will do    70 centers at a time, making    1 passes.
 Calling FoFCou, ICntrl=  3107 FMM=T I1Cent=   0 AccDes= 0.00D+00.
 Defaulting to unpruned grid for atomic number  70.
 Defaulting to unpruned grid for atomic number  70.
 Defaulting to unpruned grid for atomic number  70.
 Defaulting to unpruned grid for atomic number  70.
 Defaulting to unpruned grid for atomic number  70.
 Defaulting to unpruned grid for atomic number  70.
 Defaulting to unpruned grid for atomic number  70.
 Defaulting to unpruned grid for atomic number  70.
 Defaulting to unpruned grid for atomic number  70.
 Defaulting to unpruned grid for atomic number  70.
 Defaulting to unpruned grid for atomic number  70.
 Defaulting to unpruned grid for atomic number  70.
 Defaulting to unpruned grid for atomic number  70.
 Defaulting to unpruned grid for atomic number  70.
 Defaulting to unpruned grid for atomic number  70.
 Defaulting to unpruned grid for atomic number  70.
 Defaulting to unpruned grid for atomic number  70.
 Defaulting to unpruned grid for atomic number  70.
 Defaulting to unpruned grid for atomic number  70.
 Defaulting to unpruned grid for atomic number  70.
 Defaulting to unpruned grid for atomic number  70.
 Defaulting to unpruned grid for atomic number  70.
 Defaulting to unpruned grid for atomic number  70.
 Defaulting to unpruned grid for atomic number  70.
 End of G2Drv F.D. properties file   721 does not exist.
 End of G2Drv F.D. properties file   722 does not exist.
 End of G2Drv F.D. properties file   788 does not exist.
          IDoAtm=11111111111111111111111111111111111111111111111111
          IDoAtm=1111111111111111111
          Differentiating once with respect to nuclear coordinates.
 Defaulting to unpruned grid for atomic number  70.
 CalDSu exits because no D1Ps are significant.
 Defaulting to unpruned grid for atomic number  70.
 Defaulting to unpruned grid for atomic number  70.
 Defaulting to unpruned grid for atomic number  70.
 Defaulting to unpruned grid for atomic number  70.
 Defaulting to unpruned grid for atomic number  70.
 Defaulting to unpruned grid for atomic number  70.
 Defaulting to unpruned grid for atomic number  70.
 Defaulting to unpruned grid for atomic number  70.
 Defaulting to unpruned grid for atomic number  70.
 Defaulting to unpruned grid for atomic number  70.
 Defaulting to unpruned grid for atomic number  70.
 Defaulting to unpruned grid for atomic number  70.
 Defaulting to unpruned grid for atomic number  70.
 Defaulting to unpruned grid for atomic number  70.
 Defaulting to unpruned grid for atomic number  70.
 Defaulting to unpruned grid for atomic number  70.
 Defaulting to unpruned grid for atomic number  70.
 Defaulting to unpruned grid for atomic number  70.
 Defaulting to unpruned grid for atomic number  70.
 Defaulting to unpruned grid for atomic number  70.
 Defaulting to unpruned grid for atomic number  70.
 Defaulting to unpruned grid for atomic number  70.
 Defaulting to unpruned grid for atomic number  70.
 Defaulting to unpruned grid for atomic number  70.
          There are   210 degrees of freedom in the 1st order CPHF.  IDoFFX=6 NUNeed=     0.
    207 vectors produced by pass  0 Test12= 3.15D-13 1.00D-09 XBig12= 3.77D-01 1.23D-01.
 AX will form    72 AO Fock derivatives at one time.
    204 vectors produced by pass  1 Test12= 3.15D-13 1.00D-09 XBig12= 1.68D-01 5.96D-02.
    204 vectors produced by pass  2 Test12= 3.15D-13 1.00D-09 XBig12= 3.65D-03 6.76D-03.
    204 vectors produced by pass  3 Test12= 3.15D-13 1.00D-09 XBig12= 7.93D-05 1.22D-03.
    204 vectors produced by pass  4 Test12= 3.15D-13 1.00D-09 XBig12= 1.27D-06 7.87D-05.
    204 vectors produced by pass  5 Test12= 3.15D-13 1.00D-09 XBig12= 1.33D-08 8.86D-06.
    200 vectors produced by pass  6 Test12= 3.15D-13 1.00D-09 XBig12= 1.14D-10 7.72D-07.
    139 vectors produced by pass  7 Test12= 3.15D-13 1.00D-09 XBig12= 9.10D-13 8.06D-08.
     48 vectors produced by pass  8 Test12= 3.15D-13 1.00D-09 XBig12= 8.96D-15 6.39D-09.
      1 vectors produced by pass  9 Test12= 3.15D-13 1.00D-09 XBig12= 7.43D-16 1.02D-09.
 InvSVY:  IOpt=1 It=  1 EMax= 1.55D-15
 Solved reduced A of dimension  1615 with   210 vectors.
 End of Minotr F.D. properties file   721 does not exist.
 End of Minotr F.D. properties file   722 does not exist.
 End of Minotr F.D. properties file   788 does not exist.

 **********************************************************************

            Population analysis using the SCF density.

 **********************************************************************

 Orbital symmetries:
 Alpha Orbitals:
       Occupied  (A) (A) (A) (A) (A) (A) (A) (A) (A) (A) (A) (A)
                 (A) (A) (A) (A) (A) (A) (A) (A) (A) (A) (A) (A)
                 (A) (A) (A) (A) (A) (A) (A) (A) (A) (A) (A) (A)
                 (A) (A) (A) (A) (A) (A) (A) (A) (A) (A) (A) (A)
                 (A) (A) (A) (A) (A) (A) (A) (A) (A) (A) (A) (A)
                 (A) (A) (A) (A) (A) (A) (A) (A) (A) (A) (A) (A)
                 (A) (A) (A) (A) (A) (A) (A) (A) (A) (A) (A) (A)
                 (A) (A) (A) (A) (A) (A) (A) (A) (A) (A) (A) (A)
                 (A) (A) (A) (A) (A) (A) (A) (A) (A) (A) (A) (A)
                 (A) (A) (A) (A) (A) (A) (A) (A) (A) (A) (A) (A)
                 (A) (A) (A) (A) (A) (A) (A) (A) (A) (A) (A) (A)
                 (A) (A) (A) (A) (A) (A) (A) (A) (A) (A) (A) (A)
                 (A) (A) (A) (A) (A) (A) (A) (A) (A) (A) (A) (A)
                 (A) (A) (A) (A) (A) (A) (A) (A) (A) (A) (A) (A)
                 (A) (A) (A) (A) (A) (A) (A) (A) (A) (A) (A) (A)
                 (A) (A) (A) (A) (A) (A) (A) (A) (A) (A) (A) (A)
                 (A) (A) (A) (A) (A) (A) (A) (A) (A) (A) (A) (A)
                 (A) (A) (A) (A) (A) (A) (A) (A) (A) (A) (A) (A)
                 (A) (A) (A) (A) (A) (A) (A) (A) (A) (A) (A) (A)
                 (A) (A)
       Virtual   (A) (A) (A) (A) (A) (A) (A) (A) (A) (A) (A) (A)
                 (A) (A) (A) (A) (A) (A) (A) (A) (A) (A) (A) (A)
                 (A) (A) (A) (A) (A) (A) (A) (A) (A) (A) (A) (A)
                 (A) (A) (A) (A) (A) (A) (A) (A) (A) (A) (A) (A)
                 (A) (A) (A) (A) (A) (A) (A) (A) (A) (A) (A) (A)
                 (A) (A) (A) (A) (A) (A) (A) (A) (A) (A) (A) (A)
                 (A) (A) (A) (A) (A) (A) (A) (A) (A) (A) (A) (A)
                 (A) (A) (A) (A) (A) (A) (A) (A) (A) (A) (A) (A)
                 (A) (A) (A) (A) (A) (A) (A) (A) (A) (A) (A) (A)
                 (A) (A) (A) (A) (A) (A) (A) (A) (A) (A) (A) (A)
                 (A) (A) (A) (A) (A) (A) (A) (A) (A) (A) (A) (A)
                 (A) (A) (A) (A) (A) (A) (A) (A) (A) (A) (A) (A)
                 (A) (A) (A) (A) (A) (A) (A) (A) (A) (A) (A) (A)
                 (A) (A) (A) (A) (A) (A) (A) (A) (A) (A) (A) (A)
                 (A) (A) (A) (A) (A) (A) (A) (A) (A) (A) (A) (A)
                 (A) (A) (A) (A) (A) (A) (A) (A) (A) (A) (A) (A)
                 (A) (A) (A) (A) (A) (A) (A) (A) (A) (A) (A) (A)
                 (A) (A) (A) (A) (A) (A) (A) (A) (A) (A) (A) (A)
                 (A) (A) (A) (A) (A) (A) (A) (A) (A) (A) (A) (A)
                 (A) (A) (A) (A) (A) (A) (A) (A) (A) (A) (A) (A)
                 (A) (A) (A) (A) (A) (A) (A) (A) (A) (A) (A) (A)
                 (A) (A) (A) (A) (A) (A) (A) (A) (A) (A) (A) (A)
                 (A) (A) (A) (A) (A) (A) (A) (A) (A) (A) (A) (A)
                 (A) (A) (A) (A) (A) (A) (A) (A) (A) (A) (A) (A)
                 (A) (A) (A) (A) (A) (A) (A) (A) (A) (A) (A) (A)
                 (A) (A) (A) (A) (A) (A) (A) (A) (A) (A) (A) (A)
                 (A) (A) (A) (A) (A) (A) (A) (A) (A) (A) (A) (A)
                 (A) (A) (A) (A) (A) (A) (A) (A) (A) (A) (A) (A)
                 (A) (A) (A) (A) (A) (A) (A) (A) (A) (A) (A) (A)
                 (A) (A) (A) (A) (A) (A) (A) (A) (A) (A) (A) (A)
                 (A) (A) (A) (A) (A) (A) (A) (A) (A) (A) (A) (A)
                 (A) (A) (A) (A) (A) (A) (A) (A) (A) (A) (A) (A)
                 (A) (A) (A) (A) (A) (A) (A) (A) (A) (A) (A) (A)
                 (A) (A) (A) (A) (A) (A) (A) (A) (A) (A) (A) (A)
                 (A) (A) (A) (A) (A) (A) (A) (A) (A) (A) (A) (A)
                 (A) (A) (A) (A) (A) (A) (A) (A) (A) (A) (A) (A)
                 (A) (A) (A) (A) (A) (A) (A) (A) (A) (A) (A) (A)
                 (A) (A) (A) (A) (A) (A) (A) (A) (A) (A) (A) (A)
                 (A) (A) (A) (A) (A) (A) (A) (A) (A) (A) (A) (A)
                 (A) (A) (A) (A) (A) (A) (A) (A) (A) (A) (A) (A)
                 (A) (A) (A) (A) (A) (A) (A) (A) (A) (A) (A) (A)
                 (A) (A) (A) (A) (A) (A) (A) (A) (A) (A) (A) (A)
                 (A) (A) (A) (A) (A) (A) (A) (A) (A) (A) (A) (A)
                 (A) (A) (A) (A) (A) (A) (A) (A) (A) (A) (A) (A)
                 (A) (A) (A) (A) (A) (A) (A) (A) (A) (A) (A) (A)
                 (A) (A) (A) (A) (A) (A) (A) (A) (A) (A) (A) (A)
                 (A) (A) (A) (A) (A) (A) (A) (A) (A) (A) (A) (A)
                 (A) (A) (A) (A) (A) (A) (A) (A) (A) (A) (A) (A)
                 (A) (A) (A) (A) (A) (A) (A) (A) (A) (A) (A) (A)
                 (A) (A) (A) (A) (A) (A) (A) (A) (A) (A) (A) (A)
                 (A) (A) (A) (A) (A) (A) (A) (A) (A) (A) (A) (A)
                 (A) (A) (A) (A) (A) (A) (A) (A) (A) (A) (A) (A)
                 (A) (A) (A) (A) (A) (A) (A) (A) (A) (A) (A) (A)
                 (A) (A) (A) (A) (A) (A) (A) (A) (A) (A) (A) (A)
                 (A) (A) (A) (A) (A) (A) (A) (A) (A) (A) (A) (A)
                 (A) (A) (A) (A) (A) (A) (A) (A) (A) (A) (A) (A)
                 (A) (A) (A) (A) (A) (A) (A) (A) (A) (A) (A) (A)
                 (A) (A)
 Beta  Orbitals:
       Occupied  (A) (A) (A) (A) (A) (A) (A) (A) (A) (A) (A) (A)
                 (A) (A) (A) (A) (A) (A) (A) (A) (A) (A) (A) (A)
                 (A) (A) (A) (A) (A) (A) (A) (A) (A) (A) (A) (A)
                 (A) (A) (A) (A) (A) (A) (A) (A) (A) (A) (A) (A)
                 (A) (A) (A) (A) (A) (A) (A) (A) (A) (A) (A) (A)
                 (A) (A) (A) (A) (A) (A) (A) (A) (A) (A) (A) (A)
                 (A) (A) (A) (A) (A) (A) (A) (A) (A) (A) (A) (A)
                 (A) (A) (A) (A) (A) (A) (A) (A) (A) (A) (A) (A)
                 (A) (A) (A) (A) (A) (A) (A) (A) (A) (A) (A) (A)
                 (A) (A) (A) (A) (A) (A) (A) (A) (A) (A) (A) (A)
                 (A) (A) (A) (A) (A) (A) (A) (A) (A) (A) (A) (A)
                 (A) (A) (A) (A) (A) (A) (A) (A) (A) (A) (A) (A)
                 (A) (A) (A) (A) (A) (A) (A) (A) (A) (A) (A) (A)
                 (A) (A) (A) (A) (A) (A) (A) (A) (A) (A) (A) (A)
                 (A) (A) (A) (A) (A) (A) (A) (A) (A) (A) (A) (A)
                 (A) (A) (A) (A) (A) (A) (A) (A) (A) (A) (A) (A)
                 (A) (A) (A) (A) (A) (A) (A) (A) (A) (A) (A) (A)
                 (A) (A) (A) (A) (A) (A) (A) (A) (A) (A) (A) (A)
                 (A) (A) (A) (A) (A) (A) (A) (A) (A) (A) (A) (A)
                 (A)
       Virtual   (A) (A) (A) (A) (A) (A) (A) (A) (A) (A) (A) (A)
                 (A) (A) (A) (A) (A) (A) (A) (A) (A) (A) (A) (A)
                 (A) (A) (A) (A) (A) (A) (A) (A) (A) (A) (A) (A)
                 (A) (A) (A) (A) (A) (A) (A) (A) (A) (A) (A) (A)
                 (A) (A) (A) (A) (A) (A) (A) (A) (A) (A) (A) (A)
                 (A) (A) (A) (A) (A) (A) (A) (A) (A) (A) (A) (A)
                 (A) (A) (A) (A) (A) (A) (A) (A) (A) (A) (A) (A)
                 (A) (A) (A) (A) (A) (A) (A) (A) (A) (A) (A) (A)
                 (A) (A) (A) (A) (A) (A) (A) (A) (A) (A) (A) (A)
                 (A) (A) (A) (A) (A) (A) (A) (A) (A) (A) (A) (A)
                 (A) (A) (A) (A) (A) (A) (A) (A) (A) (A) (A) (A)
                 (A) (A) (A) (A) (A) (A) (A) (A) (A) (A) (A) (A)
                 (A) (A) (A) (A) (A) (A) (A) (A) (A) (A) (A) (A)
                 (A) (A) (A) (A) (A) (A) (A) (A) (A) (A) (A) (A)
                 (A) (A) (A) (A) (A) (A) (A) (A) (A) (A) (A) (A)
                 (A) (A) (A) (A) (A) (A) (A) (A) (A) (A) (A) (A)
                 (A) (A) (A) (A) (A) (A) (A) (A) (A) (A) (A) (A)
                 (A) (A) (A) (A) (A) (A) (A) (A) (A) (A) (A) (A)
                 (A) (A) (A) (A) (A) (A) (A) (A) (A) (A) (A) (A)
                 (A) (A) (A) (A) (A) (A) (A) (A) (A) (A) (A) (A)
                 (A) (A) (A) (A) (A) (A) (A) (A) (A) (A) (A) (A)
                 (A) (A) (A) (A) (A) (A) (A) (A) (A) (A) (A) (A)
                 (A) (A) (A) (A) (A) (A) (A) (A) (A) (A) (A) (A)
                 (A) (A) (A) (A) (A) (A) (A) (A) (A) (A) (A) (A)
                 (A) (A) (A) (A) (A) (A) (A) (A) (A) (A) (A) (A)
                 (A) (A) (A) (A) (A) (A) (A) (A) (A) (A) (A) (A)
                 (A) (A) (A) (A) (A) (A) (A) (A) (A) (A) (A) (A)
                 (A) (A) (A) (A) (A) (A) (A) (A) (A) (A) (A) (A)
                 (A) (A) (A) (A) (A) (A) (A) (A) (A) (A) (A) (A)
                 (A) (A) (A) (A) (A) (A) (A) (A) (A) (A) (A) (A)
                 (A) (A) (A) (A) (A) (A) (A) (A) (A) (A) (A) (A)
                 (A) (A) (A) (A) (A) (A) (A) (A) (A) (A) (A) (A)
                 (A) (A) (A) (A) (A) (A) (A) (A) (A) (A) (A) (A)
                 (A) (A) (A) (A) (A) (A) (A) (A) (A) (A) (A) (A)
                 (A) (A) (A) (A) (A) (A) (A) (A) (A) (A) (A) (A)
                 (A) (A) (A) (A) (A) (A) (A) (A) (A) (A) (A) (A)
                 (A) (A) (A) (A) (A) (A) (A) (A) (A) (A) (A) (A)
                 (A) (A) (A) (A) (A) (A) (A) (A) (A) (A) (A) (A)
                 (A) (A) (A) (A) (A) (A) (A) (A) (A) (A) (A) (A)
                 (A) (A) (A) (A) (A) (A) (A) (A) (A) (A) (A) (A)
                 (A) (A) (A) (A) (A) (A) (A) (A) (A) (A) (A) (A)
                 (A) (A) (A) (A) (A) (A) (A) (A) (A) (A) (A) (A)
                 (A) (A) (A) (A) (A) (A) (A) (A) (A) (A) (A) (A)
                 (A) (A) (A) (A) (A) (A) (A) (A) (A) (A) (A) (A)
                 (A) (A) (A) (A) (A) (A) (A) (A) (A) (A) (A) (A)
                 (A) (A) (A) (A) (A) (A) (A) (A) (A) (A) (A) (A)
                 (A) (A) (A) (A) (A) (A) (A) (A) (A) (A) (A) (A)
                 (A) (A) (A) (A) (A) (A) (A) (A) (A) (A) (A) (A)
                 (A) (A) (A) (A) (A) (A) (A) (A) (A) (A) (A) (A)
                 (A) (A) (A) (A) (A) (A) (A) (A) (A) (A) (A) (A)
                 (A) (A) (A) (A) (A) (A) (A) (A) (A) (A) (A) (A)
                 (A) (A) (A) (A) (A) (A) (A) (A) (A) (A) (A) (A)
                 (A) (A) (A) (A) (A) (A) (A) (A) (A) (A) (A) (A)
                 (A) (A) (A) (A) (A) (A) (A) (A) (A) (A) (A) (A)
                 (A) (A) (A) (A) (A) (A) (A) (A) (A) (A) (A) (A)
                 (A) (A) (A) (A) (A) (A) (A) (A) (A) (A) (A) (A)
                 (A) (A) (A) (A) (A) (A) (A) (A) (A) (A) (A) (A)
                 (A) (A) (A)
 The electronic state is 2-A.
 Alpha  occ. eigenvalues --  -88.05176 -88.01367 -88.01041 -24.34050 -24.33118
 Alpha  occ. eigenvalues --  -24.32768 -24.32318 -24.31784 -24.31063 -24.30436
 Alpha  occ. eigenvalues --  -24.30178 -24.30032 -18.96880 -18.94183 -18.92896
 Alpha  occ. eigenvalues --  -18.88933 -18.87460 -18.83657 -18.82859 -18.82600
 Alpha  occ. eigenvalues --  -18.79934 -18.79256 -18.79249 -18.79156 -18.78651
 Alpha  occ. eigenvalues --  -18.77661 -16.29027 -14.32674 -14.25852 -14.19908
 Alpha  occ. eigenvalues --  -14.19380 -10.92464 -10.92353 -10.92295 -10.32486
 Alpha  occ. eigenvalues --  -10.30046 -10.29075 -10.28423 -10.27757 -10.26565
 Alpha  occ. eigenvalues --  -10.25112 -10.23946 -10.23139 -10.20193 -10.18600
 Alpha  occ. eigenvalues --  -10.18378 -10.17839 -10.17164 -10.15554 -10.13540
 Alpha  occ. eigenvalues --  -10.13480 -10.11753 -10.11429 -10.11002 -10.10717
 Alpha  occ. eigenvalues --  -10.10566  -7.94915  -7.91154  -7.90807  -6.14435
 Alpha  occ. eigenvalues --   -6.14374  -6.14319  -6.10662  -6.10615  -6.10558
 Alpha  occ. eigenvalues --   -6.10304  -6.10297  -6.10206  -5.00723  -5.00702
 Alpha  occ. eigenvalues --   -5.00618  -5.00564  -5.00556  -1.96140  -1.37033
 Alpha  occ. eigenvalues --   -1.35308  -1.33822  -1.27259  -1.26659  -1.25580
 Alpha  occ. eigenvalues --   -1.24936  -1.24351  -1.23859  -1.23740  -1.22191
 Alpha  occ. eigenvalues --   -1.21682  -1.20519  -1.19211  -1.15704  -1.15181
 Alpha  occ. eigenvalues --   -1.13078  -1.11406  -1.05867  -1.05508  -1.04973
 Alpha  occ. eigenvalues --   -1.03335  -1.02526  -1.02155  -1.02014  -1.01445
 Alpha  occ. eigenvalues --   -1.01132  -1.00460  -0.99504  -0.99313  -0.98172
 Alpha  occ. eigenvalues --   -0.96047  -0.93903  -0.89884  -0.86780  -0.84147
 Alpha  occ. eigenvalues --   -0.83578  -0.83433  -0.81589  -0.80175  -0.79319
 Alpha  occ. eigenvalues --   -0.77072  -0.76808  -0.75883  -0.73168  -0.72294
 Alpha  occ. eigenvalues --   -0.71338  -0.71116  -0.69868  -0.69235  -0.69104
 Alpha  occ. eigenvalues --   -0.68026  -0.67978  -0.67148  -0.66851  -0.66639
 Alpha  occ. eigenvalues --   -0.66403  -0.65555  -0.65099  -0.65014  -0.63822
 Alpha  occ. eigenvalues --   -0.63723  -0.63703  -0.63292  -0.62089  -0.61853
 Alpha  occ. eigenvalues --   -0.61596  -0.60588  -0.59879  -0.59244  -0.58489
 Alpha  occ. eigenvalues --   -0.58216  -0.57508  -0.57381  -0.57053  -0.55892
 Alpha  occ. eigenvalues --   -0.55511  -0.55260  -0.54776  -0.54707  -0.54133
 Alpha  occ. eigenvalues --   -0.53724  -0.53662  -0.53348  -0.53147  -0.53014
 Alpha  occ. eigenvalues --   -0.52942  -0.52181  -0.52141  -0.51959  -0.51625
 Alpha  occ. eigenvalues --   -0.51261  -0.51027  -0.50781  -0.50646  -0.50258
 Alpha  occ. eigenvalues --   -0.50222  -0.49952  -0.49788  -0.49635  -0.49544
 Alpha  occ. eigenvalues --   -0.49418  -0.49040  -0.48712  -0.48602  -0.48349
 Alpha  occ. eigenvalues --   -0.48248  -0.48102  -0.47941  -0.47685  -0.47593
 Alpha  occ. eigenvalues --   -0.47583  -0.47344  -0.47031  -0.46784  -0.46274
 Alpha  occ. eigenvalues --   -0.45933  -0.45553  -0.45456  -0.45350  -0.44815
 Alpha  occ. eigenvalues --   -0.43820  -0.43689  -0.43238  -0.42817  -0.42580
 Alpha  occ. eigenvalues --   -0.42113  -0.41548  -0.40713  -0.40415  -0.39366
 Alpha  occ. eigenvalues --   -0.39019  -0.38838  -0.38500  -0.37865  -0.37343
 Alpha  occ. eigenvalues --   -0.36588  -0.35444  -0.35012  -0.34792  -0.34714
 Alpha  occ. eigenvalues --   -0.34620  -0.34389  -0.34269  -0.33007  -0.32797
 Alpha  occ. eigenvalues --   -0.31851  -0.31388  -0.30592  -0.27339  -0.27269
 Alpha  occ. eigenvalues --   -0.27226  -0.27209  -0.27163  -0.26974  -0.26891
 Alpha virt. eigenvalues --   -0.13970  -0.09833  -0.07029  -0.06168  -0.05157
 Alpha virt. eigenvalues --   -0.04264  -0.03460  -0.02025  -0.00418   0.01149
 Alpha virt. eigenvalues --    0.02752   0.04599   0.04847   0.06036   0.06885
 Alpha virt. eigenvalues --    0.07583   0.08095   0.08698   0.09140   0.09397
 Alpha virt. eigenvalues --    0.09654   0.10087   0.10384   0.10551   0.10711
 Alpha virt. eigenvalues --    0.11303   0.11865   0.12177   0.12370   0.12610
 Alpha virt. eigenvalues --    0.13042   0.13249   0.13504   0.13691   0.13806
 Alpha virt. eigenvalues --    0.14096   0.14399   0.14867   0.15209   0.15466
 Alpha virt. eigenvalues --    0.15700   0.15879   0.15941   0.16019   0.16318
 Alpha virt. eigenvalues --    0.16851   0.16993   0.17524   0.17990   0.18296
 Alpha virt. eigenvalues --    0.18673   0.19179   0.19611   0.19760   0.20403
 Alpha virt. eigenvalues --    0.20702   0.21288   0.21378   0.21605   0.21923
 Alpha virt. eigenvalues --    0.22827   0.22903   0.23001   0.23585   0.24139
 Alpha virt. eigenvalues --    0.24350   0.25399   0.26422   0.26530   0.26956
 Alpha virt. eigenvalues --    0.27360   0.27559   0.27766   0.28317   0.28888
 Alpha virt. eigenvalues --    0.29510   0.29640   0.29889   0.30586   0.30600
 Alpha virt. eigenvalues --    0.30949   0.31139   0.31559   0.32147   0.32377
 Alpha virt. eigenvalues --    0.32553   0.33350   0.34218   0.34845   0.36355
 Alpha virt. eigenvalues --    0.37475   0.37773   0.38587   0.39226   0.39559
 Alpha virt. eigenvalues --    0.39586   0.40041   0.40719   0.40960   0.41119
 Alpha virt. eigenvalues --    0.41727   0.41958   0.42366   0.42835   0.43106
[...]
 2794,0.00011657,-0.00025704,0.00003980,-0.00151961,-0.00936853,-0.0090
 9280,-0.00012453,-0.00048519,-0.00031180,0.02279113,-0.28884893,-0.125
 43997,-0.00075671,-0.00043119,0.00153953,-0.00119866,-0.00009952,0.001
 58921,-0.02650159,0.29858775,0.00001766,0.00002421,-0.00003338,0.00003
 718,0.00005851,0.00001738,0.00001694,0.00004603,0.00000882,-0.00001676
 ,-0.00002101,-0.00000060,-0.00004440,-0.00001885,-0.00001034,-0.000028
 10,-0.00008227,-0.00011359,-0.00001882,-0.00003154,-0.00001486,-0.0000
 2957,0.00007624,0.00005799,0.00001532,0.00001068,0.00000722,-0.0000064
 9,0.00001828,-0.00000403,0.00001718,-0.00001142,-0.00000184,0.00003831
 ,-0.00003793,0.00005034,-0.00000058,-0.00000156,0.00000025,-0.00000020
 ,-0.00000028,0.00000004,0.00000006,-0.00000147,-0.00000028,-0.00001892
 ,0.00000420,-0.00001518,-0.00002500,0.00000090,-0.00000697,0.00001645,
 0.00007897,0.00000241,0.00000405,-0.00011543,0.00002932,0.00002742,-0.
 00001034,0.00002110,0.00006334,0.00001651,0.00001383,0.00001840,0.0000
 6331,-0.00002390,0.00000247,0.00006517,-0.00002700,-0.00001369,0.00000
 681,-0.00000813,-0.00000921,0.00000231,-0.00000519,-0.00002038,-0.0000
 1165,-0.00000022,-0.00003894,-0.00002292,-0.00001150,0.00002022,0.0000
 2131,-0.00000496,0.00001680,-0.00000613,0.00000468,-0.00009260,-0.0003
 2253,0.00036135,-0.00000349,-0.00000743,0.00000170,-0.00001507,-0.0000
 0910,-0.00000375,-0.00000601,-0.00000515,0.00000552,-0.00000463,0.0000
 0239,0.00000047,-0.00000429,0.00000041,-0.00000039,-0.00000939,0.00000
 397,-0.00000612,-0.00015113,0.00010141,-0.00010824,0.00003450,0.000011
 09,-0.00009480,0.00012757,0.00021581,-0.00023436,0.00033936,0.00023491
 ,-0.00064487,-0.00005841,0.00001744,0.00001883,-0.00001193,-0.00003044
 ,-0.00000698,0.00000192,-0.00000217,-0.00000826,0.00000987,0.00000140,
 0.00001333,0.00001282,0.00001508,-0.00000650,-0.00001405,-0.00000558,-
 0.00000767,0.00000082,0.00000221,-0.00000024,-0.00000271,0.00000374,-0
 .00000091,0.00000059,0.00000275,-0.00000051,-0.00002339,0.00004449,0.0
 0001216,0.00000578,-0.00000265,-0.00000044,0.00001724,-0.00001673,-0.0
 0001907,0.00001858,0.00000046,0.00002885,-0.00003570,0.00001563,-0.000
 02083,0.00000399,-0.00000434,0.00000588,-0.00004201,-0.00004257,-0.000
 07071,-0.00013373,0.00067437,-0.00042443,-0.00544315,-0.00265262,0.002
 13449,-0.00357248,-0.00087895,0.00426543,0.00232155,-0.01779790,-0.002
 97097,0.00022913,-0.00062391,-0.00040418,-0.00232137,0.00651384,0.0071
 2758,-0.00003772,0.00031507,0.00006946,0.00445597,-0.12532696,-0.11037
 449,0.00200485,0.00177317,-0.00191025,0.00201599,0.00126952,-0.0021714
 3,0.00018262,0.13651839,0.10536585,0.00007631,-0.00109410,0.00012186,-
 0.02083666,0.00991952,0.00060582,-0.00619862,0.01197218,0.00157223,-0.
 00417701,0.00006665,0.00516868,-0.01408343,-0.00461507,-0.00573817,0.0
 0872540,-0.00129156,0.00492841,-0.00171838,-0.00712160,-0.00155026,-0.
 00057171,-0.00141111,-0.00223343,0.00296410,0.00195294,0.00108474,0.00
 024661,-0.00002155,0.00014898,-0.00000736,0.00044264,-0.00009360,-0.00
 011249,-0.00004889,0.00020457,-0.00029217,-0.00012708,0.00002191,0.000
 38029,-0.00026756,-0.00030637,0.00070969,-0.00095831,0.00002432,-0.009
 90704,-0.00349348,-0.00058765,-0.00569887,0.00026562,-0.00184497,-0.01
 203898,0.00049413,0.00495426,0.02161123,-0.00299988,-0.01092767,-0.011
 34335,-0.02585780,-0.01827738,0.00534441,0.00347428,-0.00891106,-0.014
 01532,0.00491780,0.00702716,-0.00386542,0.00109343,0.00128658,-0.01188
 070,0.00219648,-0.00896735,0.00008118,0.00647140,0.00556583,-0.0025557
 2,-0.00384971,0.00456661,-0.00215527,-0.00044715,0.00103736,0.00470128
 ,0.00160600,0.00069068,-0.00621161,-0.00364834,-0.00304450,0.00204118,
 -0.00400355,0.00205526,-0.00098400,-0.00038499,0.00016235,-0.00260326,
 -0.00076405,-0.00105988,-0.00109213,-0.00051634,0.00074809,0.00170761,
 0.00239143,0.00233068,0.00257565,0.00244470,-0.00047560,0.00239913,-0.
 00009220,0.00153928,-0.00167575,0.00264557,-0.00123286,-0.00078408,0.0
 0112963,0.00096916,-0.00141962,-0.00022166,-0.00046269,-0.00072244,-0.
 00011632,0.00015974,-0.00069440,0.00025159,0.00087808,0.00009157,-0.00
 005896,0.00005241,-0.00003166,-0.00002388,-0.00009321,0.00048222,-0.00
 006151,0.00087194,0.00060531,0.00070659,-0.00092343,-0.00078311,-0.000
 52083,-0.00048686,0.00005363,0.00023368,-0.00001627,-0.00002995,0.0000
 4622,-0.00004706,0.00000608,0.00012261,-0.00008850,0.00005863,-0.00001
 436,-0.00006571,0.00005596,-0.00002570,-0.00004950,0.00104658,0.000031
 28,-0.00082090,0.00027908,-0.00019498,0.00136335,-0.00208679,0.0013342
 3,-0.00109791,0.00021226,-0.00021475,0.00017923,0.00004524,0.00004818,
 -0.00001167,-0.00000933,0.00034218,0.00005726,0.00022009,0.00021849,-0
 .00039765,-0.00003636,0.00025006,-0.00001059,0.00030503,-0.00011269,-0
 .00009692,-0.00009426,-0.00015708,0.00060175,0.00003708,-0.00009565,-0
 .00006356,-0.00007501,-0.00003152,0.00006862,-0.00014486,-0.00016097,-
 0.00016225,0.00003640,-0.00018562,0.00002944,0.00000402,-0.00001854,0.
 00004284,0.00001930,0.00000605,0.00006085,0.08329981,0.00187983,0.0011
 9590,-0.00120562,0.00177627,0.00293760,0.00126037,0.01105782,-0.006694
 42,-0.00129907,-0.00264975,-0.00419621,-0.00446205,-0.00020488,-0.0048
 0607,-0.00007106,0.00055681,-0.00120578,-0.00094014,-0.00173723,0.0036
 2495,0.00048895,0.00009452,0.00088921,0.00028769,0.00007021,-0.0002884
 3,-0.00084850,0.00001165,-0.00007682,-0.00002537,0.00024026,0.00060569
 ,-0.00006342,-0.00050159,0.00009939,0.00010937,-0.00026625,0.00014699,
 0.00014130,0.00018482,-0.00006427,-0.00023614,0.00027373,-0.00107088,-
 0.00005670,-0.00267731,-0.01904277,0.00624333,-0.00116377,-0.00650502,
 0.00649452,0.00092411,-0.00313768,0.00101487,-0.00561675,-0.04586048,0
 .00226635,-0.02049231,0.00634408,-0.02881907,0.00967843,-0.00591334,0.
 01741688,0.00932423,-0.02318756,-0.00861357,-0.00084896,0.00849339,-0.
 00187575,-0.00090155,-0.01234078,0.00192644,0.00222875,-0.00066199,0.0
 0517608,-0.00532121,0.00394813,-0.00635937,-0.00459023,-0.00042631,-0.
 00389162,-0.00009103,-0.00248776,0.00319076,-0.00539354,0.00177383,0.0
 0301327,-0.00766325,-0.00371057,-0.00670029,-0.00036857,0.00147752,-0.
 00061886,-0.00055027,0.00048595,-0.00104306,0.00068231,0.00046878,-0.0
 0199611,0.00151908,-0.00171187,-0.00150336,0.00105210,-0.00038951,-0.0
 0023954,0.00353237,-0.00118247,0.00105962,0.00318926,-0.00001211,0.002
 32087,0.00113334,0.00211046,0.00339588,0.00461332,0.00300458,0.0008080
 9,0.00092700,0.00138916,0.00026912,0.00041483,0.00006034,-0.00056931,-
 0.00011840,0.00018285,-0.00004223,0.00009830,-0.00005712,0.00015076,0.
 00071876,0.00010178,0.00016578,0.00018004,0.00009437,0.00031657,-0.000
 08748,-0.00013412,-0.00040942,0.00047912,-0.00033195,0.00008260,-0.000
 02106,0.00000844,0.00000622,0.00016182,-0.00004586,0.00009370,-0.00002
 906,-0.00017254,-0.00000770,-0.00015279,-0.00007024,-0.00000892,-0.000
 39279,-0.00010460,0.00051092,-0.00064346,-0.00040651,-0.00052113,0.000
 64352,-0.00026192,0.00028313,0.00045483,-0.00001396,0.00007821,-0.0001
 2363,-0.00020078,-0.00006633,-0.00008216,0.00005825,0.00014061,0.00002
 422,-0.00041610,-0.00012857,0.00032517,-0.00032553,0.00015957,-0.00058
 468,0.00071225,-0.00016026,-0.00037960,0.00054190,0.00022934,0.0000563
 4,-0.00012981,0.00000112,0.00008308,0.00004896,0.00003952,0.00012807,-
 0.00024734,-0.00012441,-0.00086182,-0.00050055,0.00032778,0.00005102,-
 0.00003239,0.00001346,-0.00023228,-0.00006640,-0.00005241,0.00820246,0
 .10922973,0.00008609,-0.00006578,0.00109157,-0.00445116,0.00169711,0.0
 0302913,0.01232772,-0.01082180,0.00502310,-0.00289688,-0.00114038,-0.0
 1106133,-0.00087722,-0.00029399,-0.00532024,0.00165736,-0.00096331,-0.
 00025538,-0.00258243,0.00653562,-0.00032570,-0.00029422,0.00008245,0.0
 0020877,-0.00053526,-0.00066144,-0.00002202,0.00018513,-0.00004861,-0.
 00006902,-0.00052729,-0.00016451,-0.00023543,-0.00019487,-0.00007597,0
 .00010455,-0.00016131,0.00016848,0.00003734,0.00043675,-0.00016309,-0.
 00038367,0.00049068,-0.00048174,0.00054308,-0.00198227,0.00289692,-0.0
 1064131,0.00417118,-0.00205311,-0.01885965,0.00548042,-0.00056309,-0.0
 1231209,-0.01110585,0.00063848,0.02045020,-0.01509701,-0.02961905,0.00
 423220,-0.02004234,0.02545241,0.00042164,0.00696251,-0.00590804,-0.012
 55589,0.00142499,0.00092471,-0.00345061,-0.00801572,0.00600237,-0.0209
 8646,0.00133721,0.00499992,-0.00017400,0.00491924,-0.00593584,-0.00845
 275,0.00610774,-0.00368888,0.00133918,0.00426080,0.00380069,-0.0010113
 0,-0.00550418,0.00257033,0.00346375,0.00183727,-0.00407055,0.00171340,
 0.00026719,-0.00374565,0.00054468,-0.00159370,-0.00125102,-0.00052362,
 -0.00060839,-0.00077668,0.00040815,0.00135727,-0.00150593,-0.00256740,
 0.00301862,0.00150933,-0.00147107,0.00118440,-0.00020519,-0.00049282,-
 0.00068244,0.00249318,-0.00149740,-0.00028343,-0.00017736,-0.00152757,
 0.00087067,0.00129573,-0.00060537,0.00035197,-0.00013221,0.00023287,0.
 00003012,0.00006061,0.00023099,0.00001449,0.00002440,0.00001305,0.0000
 6364,0.00000175,0.00000022,-0.00065244,-0.00005999,-0.00093924,-0.0007
 7397,-0.00031969,0.00036236,0.00046347,0.00062969,0.00068232,-0.000345
 75,0.00029628,0.00030777,-0.00004316,0.00002294,-0.00000698,-0.0002256
 7,0.00007067,-0.00004514,-0.00000821,-0.00001719,-0.00004369,-0.000080
 55,0.00000382,-0.00004422,-0.00051428,-0.00006214,0.00008903,0.0000658
 8,0.00013245,-0.00087317,0.00074706,-0.00055575,0.00103756,0.00035614,
 0.00004314,0.00013666,-0.00002307,-0.00003717,-0.00000174,-0.00008220,
 -0.00008762,-0.00001812,0.00026674,0.00036013,0.00033979,-0.00007398,0
 .00002914,-0.00011237,-0.00000053,-0.00016284,-0.00021429,0.00030763,0
 .00001187,-0.00014121,-0.00008491,0.00005421,-0.00011898,-0.00005454,-
 0.00001157,0.00002558,0.00006799,-0.00001494,-0.00002410,0.00010606,0.
 00012409,0.00014119,-0.00004366,-0.00002178,0.00001138,-0.00005971,-0.
 00005476,0.00001793,0.01986728,0.01292399,0.07268128,-0.15460892,-0.05
 645610,0.11586955,0.00157174,0.00040008,0.01622128,-0.03409286,-0.0136
 0362,0.03831276,0.00090569,0.00015291,-0.00550342,0.00271186,0.0000947
 9,-0.00226936,-0.00050346,0.00209603,0.00146894,0.00022233,-0.00129350
 ,-0.00271593,0.00008385,-0.00066055,0.00000610,0.00069930,0.00093965,-
 0.00115960,-0.00006442,-0.00011634,0.00022584,0.00000368,-0.00002184,0
 .00007790,-0.00020163,-0.00002978,0.00018336,-0.00007096,-0.00013009,-
 0.00005189,-0.00021064,-0.00040154,0.00001578,0.00021165,-0.00001467,-
 0.00002144,-0.00076261,0.00024037,-0.00031453,-0.00070653,0.00096831,0
 .00021289,0.00063666,0.00080971,-0.00008412,-0.00097700,-0.00118221,0.
 00035345,0.00122809,-0.00045039,0.00049593,0.00159249,-0.00173831,-0.0
 0197433,0.00048369,0.00108575,-0.00023195,0.00018289,0.00033806,-0.000
 08501,-0.00049731,0.00028746,-0.00014147,-0.00045784,0.00014902,-0.000
 08798,-0.00108820,0.00053717,0.00227173,-0.00088306,0.00068436,0.00054
 551,0.00083527,0.00046910,-0.00042918,0.00067662,-0.00014437,-0.000030
 76,-0.00109034,-0.00062896,0.00036890,-0.00026486,-0.00001551,0.000119
 54,-0.00034733,-0.00017583,-0.00001159,-0.00032614,-0.00013619,0.00056
 089,-0.00020303,0.00011307,0.00011081,-0.00020235,-0.00004628,0.000041
 50,-0.00032976,0.00011474,-0.00015766,0.00024436,0.00021277,-0.0000747
 9,0.00022002,0.00006550,-0.00008159,0.00077133,0.00039777,-0.00025591,
 -0.16756700,-0.05187400,-0.01980554,-0.05987615,0.00050177,-0.00284818
 ,-0.00219216,0.00859723,-0.00219172,0.00072983,-0.00368195,-0.00192699
 ,0.00271050,-0.00061389,0.00254997,0.00541489,0.00345863,-0.00473245,-
 0.00462082,-0.00364145,-0.00037058,0.00009446,0.00002019,-0.00009205,0
 .00005404,0.00003254,-0.00007091,-0.00012642,0.00060791,-0.00025046,-0
 .00074988,-0.00144325,-0.00018128,-0.00037520,0.00064660,-0.00003503,0
 .00963480,-0.00263675,-0.00278763,0.00386032,0.00013810,0.00937087,-0.
 01532583,0.00658735,-0.00467724,0.00034349,-0.00197539,0.00017714,-0.0
 3052526,-0.00876637,-0.00109558,-0.01634073,-0.01256950,-0.00708959,-0
 .00135190,0.00507881,-0.00171196,0.00181179,-0.00373201,0.00237599,0.0
 0017348,-0.00047698,-0.00052217,0.00051354,0.00061580,0.00084476,-0.00
 001060,-0.00012569,-0.00129497,-0.00021096,0.00007428,0.00054796,0.000
 07886,-0.00028486,-0.00005589,-0.00024757,-0.00025952,0.00010681,0.000
 07833,-0.00033331,-0.00034805,-0.00003648,-0.00010858,0.00009856,0.000
 51478,-0.00222412,-0.00058913,0.45815158,-0.06294716,-0.04648509,0.033
 71047,0.01140450,0.00988294,-0.01494907,-0.01065971,-0.00479366,0.0165
 4891,-0.00145410,0.00148705,-0.00162861,-0.00192610,-0.00295772,0.0011
 3900,0.00068143,-0.00033140,0.00035528,0.00012819,0.00089314,-0.001387
 77,-0.00046413,-0.00101213,0.00030907,0.00042903,0.00049859,-0.0005772
 7,-0.00005685,-0.00028127,0.00003488,0.00004565,0.00011551,0.00016754,
 -0.00032509,-0.00007313,-0.00002801,-0.00000587,-0.00002209,-0.0000309
 9,-0.00009157,-0.00022185,-0.00002929,0.00011374,-0.00004553,-0.000000
 31,-0.00032389,0.00028007,-0.00020458,-0.00058271,0.00080763,0.0000853
 5,0.00085524,0.00031938,-0.00030710,-0.00126106,-0.00044201,0.00059045
 ,0.00042595,-0.00064068,0.00029644,0.00084292,-0.00150625,-0.00113574,
 0.00054562,0.00075585,-0.00033475,0.00028200,0.00005977,-0.00006914,-0
 .00006483,0.00038347,-0.00010489,-0.00019784,0.00021393,-0.00001379,-0
 .00104333,0.00089412,0.00140041,-0.00038968,0.00055855,0.00024733,0.00
 059177,0.00004107,-0.00018893,0.00022794,-0.00015137,-0.00000177,-0.00
 103377,-0.00028541,0.00050377,-0.00023998,0.00014747,0.00007005,-0.000
 20931,-0.00004462,-0.00002587,-0.00019963,-0.00003779,0.00031279,-0.00
 007659,0.00008319,0.00006237,-0.00003703,0.00005088,-0.00000790,-0.000
 13231,0.00006726,-0.00007377,0.00028356,0.00005895,-0.00008938,0.00024
 440,-0.00006992,-0.00023814,0.00067412,0.00026894,-0.00026835,-0.03864
 695,-0.07332557,-0.00951551,0.01337001,0.00738004,0.00151577,0.0030716
 6,-0.00306328,0.00152618,0.00082729,0.00002434,-0.00133238,0.00456545,
 -0.00020161,-0.00250825,0.00220137,0.00100676,-0.00345449,-0.00098284,
 -0.00031862,0.00128829,0.00017154,-0.00000183,-0.00024296,0.00006516,-
 0.00006193,0.00000609,-0.00001580,0.00043247,0.00006035,0.00012127,0.0
 0090219,-0.00011104,0.00136601,-0.00004600,0.00051067,-0.00685971,-0.0
 0028390,-0.00727471,0.00203822,0.00135112,0.00794192,0.00214139,-0.019
 37722,0.01782850,-0.00156638,0.00273661,0.00232623,-0.01478435,-0.0018
 1193,-0.00136756,-0.03466883,-0.01602743,-0.01016164,0.00066603,-0.001
 51903,-0.00067093,0.00248849,-0.00522554,0.00243410,-0.00201022,0.0004
 0078,-0.00086958,-0.00201773,-0.00243740,-0.00170763,-0.00026305,-0.00
 032104,-0.00212564,-0.00037412,-0.00015045,0.00022624,-0.00021664,-0.0
 0062290,-0.00053632,-0.00017787,-0.00006943,0.00021606,0.00015057,-0.0
 0035590,-0.00047986,-0.00014262,-0.00009543,-0.00007677,-0.00004869,-0
 .00154368,0.00006175,0.13547788,0.15415994,0.11684051,0.02136949,-0.23
 702650,0.01657321,0.01646163,-0.02006927,0.00719452,0.00393038,0.00170
 706,-0.00052762,-0.00009174,0.00086799,0.00195959,-0.00582859,-0.00142
 926,-0.00197710,-0.00276386,0.00009740,-0.00034154,-0.00062658,0.00076
 838,-0.00083326,-0.00067743,0.00066214,0.00026466,0.00030436,0.0000178
 1,0.00002347,0.00000775,-0.00018589,0.00000278,0.00012658,0.00030792,-
 0.00000584,-0.00001047,-0.00038397,-0.00000702,-0.00000295,-0.00006886
 ,0.00009670,-0.00007765,-0.00001938,-0.00010161,-0.00005918,-0.0000430
 8,0.00036555,0.00004936,0.00067032,0.00092883,-0.00061540,0.00013580,-
 0.00033493,-0.00035313,0.00063086,0.00045762,0.00062606,-0.00081556,-0
 .00021799,-0.00000573,-0.00114125,-0.00262465,0.00041820,0.00030194,-0
 .00021424,-0.00060044,0.00036315,-0.00002460,-0.00024631,0.00024828,0.
 00009996,-0.00005679,0.00050350,-0.00005490,0.00013742,0.00042338,0.00
 145223,-0.00010028,0.00023751,0.00167774,-0.00025947,0.00002483,-0.001
 04484,-0.00030236,0.00020179,-0.00013789,0.00004026,-0.00017952,0.0001
 6469,0.00088379,-0.00060868,0.00034989,-0.00001913,-0.00006798,0.00053
 673,0.00022991,0.00015994,0.00025578,0.00008064,-0.00027841,0.00001301
 ,0.00003464,0.00009376,0.00001334,-0.00002613,0.00004324,0.00012784,-0
 .00005692,0.00012832,0.00019474,-0.00054031,0.00028466,-0.00001533,-0.
 00009476,0.00012705,-0.00039654,-0.00031263,0.00027077,-0.02076677,-0.
 01286263,-0.08173211,-0.00937429,-0.00055335,-0.00342683,-0.00109759,0
 .00058813,0.00067755,0.00036830,0.00069256,0.00005249,-0.00481961,0.00
 112712,0.00027765,-0.00614078,-0.00378123,0.00692086,0.00448127,0.0028
 3850,0.00031321,-0.00019226,-0.00006396,0.00003231,-0.00010466,-0.0000
 0818,0.00007316,0.00016384,-0.00067744,0.00017564,-0.00008690,-0.00036
 986,0.00023293,0.00052586,-0.00035519,0.00085158,0.00252757,-0.0016748
 8,0.01081495,-0.00413046,-0.00115056,-0.01453430,0.00808060,0.01372749
 ,-0.01211436,0.00024900,-0.00004153,-0.00153830,0.03481968,0.01005125,
 0.00622624,-0.02045654,-0.01073097,-0.00176266,-0.00127432,0.00080482,
 0.00018508,0.00064699,-0.00145057,0.00081288,0.00071625,0.00055395,0.0
 0035494,0.00101928,-0.00100567,0.00055547,0.00050312,-0.00040403,-0.00
 082617,0.00006918,0.00013401,0.00030247,-0.00073087,0.00055913,0.00001
 644,0.00014539,0.00013578,-0.00004698,0.00013302,0.00001355,-0.0000887
 7,0.00006920,0.00002476,0.00013013,-0.00090217,0.00055232,-0.00153534,
 -0.12517480,-0.02764555,0.34163963\\0.00000641,-0.00000738,0.00000212,
 -0.00000152,0.00000303,0.00000285,-0.00000002,-0.00000091,0.00000030,0
 .00000057,-0.00000046,-0.00000074,0.00000048,-0.00000037,-0.00000313,-
 0.00000263,-0.00000079,-0.00000005,-0.00000006,0.00000033,0.00000085,-
 0.00000106,0.00000008,0.00000065,-0.00000038,0.00000007,0.,-0.00000085
 ,0.00000010,0.00000062,-0.00000100,0.00000043,-0.00000005,-0.00000022,
 -0.00000013,-0.00000013,-0.00000036,-0.00000020,0.00000067,0.00000053,
 -0.00000025,-0.00000009,0.00000028,0.00000081,-0.00000046,-0.00000141,
 0.00000218,-0.00000422,-0.00000077,0.00000224,-0.00000091,0.00000171,0
 .00000053,-0.00000136,0.00000094,0.00000135,-0.00000327,0.00000035,0.0
 0000146,-0.00000055,-0.00000144,0.00000049,0.00000028,0.00000044,0.000
 00077,-0.00000151,0.00000211,0.00000090,-0.00000265,0.00000116,-0.0000
 0022,-0.00000162,0.00000089,0.00000046,-0.00000114,-0.00000079,0.00000
 102,-0.00000067,-0.00000108,0.00000101,-0.00000024,-0.00000157,0.00000
 130,-0.00000030,0.00000013,0.00000187,-0.00000260,0.00000092,0.0000006
 7,-0.00000187,-0.00000229,0.00000191,0.00000062,-0.00000138,0.00000159
 ,0.00000010,-0.00000254,0.00000232,-0.00000035,0.00000014,0.00000211,-
 0.00000294,-0.00000015,0.00000214,-0.00000240,0.00000081,0.00000169,-0
 .00000302,0.00000045,0.00000090,-0.00000137,0.00000084,0.00000151,-0.0
 0000270,0.00000174,0.00000066,-0.00000146,0.00000218,-0.00000321,0.000
 00208,0.,-0.00000163,0.00000194,0.00000019,-0.00000230,0.00000231,-0.0
 0000002,-0.00000185,0.00000221,-0.00000150,-0.00000058,0.00000451,-0.0
 0000038,-0.00000009,0.00000131,-0.00000309,0.00000014,0.00000111,-0.00
 000133,-0.00000011,0.00000127,-0.00000181,-0.00000041,0.00000221,-0.00
 000314,0.00000070,0.00000174,0.00000034,-0.00000250,0.00000279,0.00000
 046,-0.00000222,0.00000240,0.00000129,-0.00000102,0.00000077,-0.000000
 65,-0.00000112,0.00000326,-0.00000307,-0.00000012,0.00000039,-0.000000
 20,-0.00000033,0.00000152,0.00000105,-0.00000194,0.00000124,0.00000098
 ,-0.00000083,0.00000019,0.00000172,-0.00000121,-0.00000014,0.00000108,
 -0.00000087,0.00000100,0.00000172,-0.00000049,-0.00000041,0.00000154,-
 0.00000134,-0.00000025,0.00000118,-0.00000146,0.00000014,0.00000019,-0
 .00000147,0.00000164,0.00000115,-0.00000071,-0.00000038,0.00000188,-0.
 00000131,-0.00000147,0.00000069,-0.00000113,0.00000085,0.00000119,-0.0
 0000048,-0.00000046,-0.00000021,0.00000017,0.,-0.00000279,0.00000447,-
 0.00000100\\\@


 VIRTUE IS LEARNED AT YOUR MOTHER'S KNEE,
 VICES ARE PICKED UP AT SOME OTHER JOINT.
 Job cpu time:       6 days  8 hours  5 minutes 57.7 seconds.
 Elapsed time:       0 days 15 hours 16 minutes 28.1 seconds.
 File lengths (MBytes):  RWF=  13258 Int=      0 D2E=      0 Chk=     95 Scr=      1
 Normal termination of Gaussian 16 at Fri Feb 21 10:19:12 2025.
