 Entering Gaussian System, Link 0=/sysapps/ubuntu-applications/gaussian-new/avx/g16//g16
 Input=i2.in
 Output=i2.log
 Initial command:
 /sysapps/ubuntu-applications/gaussian-new/avx/g16/l1.exe "/data/temp-scratch/selhajj1/338138/Gau-153396.inp" -scrdir="/data/temp-scratch/selhajj1/338138/"
 Entering Link 1 = /sysapps/ubuntu-applications/gaussian-new/avx/g16/l1.exe PID=    153398.
  
 Copyright (c) 1988,1990,1992,1993,1995,1998,2003,2009,2016,
            Gaussian, Inc.  All Rights Reserved.
  
 This is part of the Gaussian(R) 16 program.  It is based on
 the Gaussian(R) 09 system (copyright 2009, Gaussian, Inc.),
 the Gaussian(R) 03 system (copyright 2003, Gaussian, Inc.),
 the Gaussian(R) 98 system (copyright 1998, Gaussian, Inc.),
 the Gaussian(R) 94 system (copyright 1995, Gaussian, Inc.),
 the Gaussian 92(TM) system (copyright 1992, Gaussian, Inc.),
 the Gaussian 90(TM) system (copyright 1990, Gaussian, Inc.),
 the Gaussian 88(TM) system (copyright 1988, Gaussian, Inc.),
 the Gaussian 86(TM) system (copyright 1986, Carnegie Mellon
 University), and the Gaussian 82(TM) system (copyright 1983,
 Carnegie Mellon University). Gaussian is a federally registered
 trademark of Gaussian, Inc.
  
 This software contains proprietary and confidential information,
 including trade secrets, belonging to Gaussian, Inc.
  
 This software is provided under written license and may be
 used, copied, transmitted, or stored only in accord with that
 written license.
  
 The following legend is applicable only to US Government
 contracts under FAR:
  
                    RESTRICTED RIGHTS LEGEND
  
 Use, reproduction and disclosure by the US Government is
 subject to restrictions as set forth in subparagraphs (a)
 and (c) of the Commercial Computer Software - Restricted
 Rights clause in FAR 52.227-19.
  
 Gaussian, Inc.
 340 Quinnipiac St., Bldg. 40, Wallingford CT 06492
  
  
 ---------------------------------------------------------------
 Warning -- This program may not be used in any manner that
 competes with the business of Gaussian, Inc. or will provide
 assistance to any competitor of Gaussian, Inc.  The licensee
 of this program is prohibited from giving any competitor of
 Gaussian, Inc. access to this program.  By using this program,
 the user acknowledges that Gaussian, Inc. is engaged in the
 business of creating and licensing software in the field of
 computational chemistry and represents and warrants to the
 licensee that it is not a competitor of Gaussian, Inc. and that
 it will not use this program in any manner prohibited above.
 ---------------------------------------------------------------
  

 Cite this work as:
 Gaussian 16, Revision A.03,
 M. J. Frisch, G. W. Trucks, H. B. Schlegel, G. E. Scuseria, 
 M. A. Robb, J. R. Cheeseman, G. Scalmani, V. Barone, 
 G. A. Petersson, H. Nakatsuji, X. Li, M. Caricato, A. V. Marenich, 
 J. Bloino, B. G. Janesko, R. Gomperts, B. Mennucci, H. P. Hratchian, 
 J. V. Ortiz, A. F. Izmaylov, J. L. Sonnenberg, D. Williams-Young, 
 F. Ding, F. Lipparini, F. Egidi, J. Goings, B. Peng, A. Petrone, 
 T. Henderson, D. Ranasinghe, V. G. Zakrzewski, J. Gao, N. Rega, 
 G. Zheng, W. Liang, M. Hada, M. Ehara, K. Toyota, R. Fukuda, 
 J. Hasegawa, M. Ishida, T. Nakajima, Y. Honda, O. Kitao, H. Nakai, 
 T. Vreven, K. Throssell, J. A. Montgomery, Jr., J. E. Peralta, 
 F. Ogliaro, M. J. Bearpark, J. J. Heyd, E. N. Brothers, K. N. Kudin, 
 V. N. Staroverov, T. A. Keith, R. Kobayashi, J. Normand, 
 K. Raghavachari, A. P. Rendell, J. C. Burant, S. S. Iyengar, 
 J. Tomasi, M. Cossi, J. M. Millam, M. Klene, C. Adamo, R. Cammi, 
 J. W. Ochterski, R. L. Martin, K. Morokuma, O. Farkas, 
 J. B. Foresman, and D. J. Fox, Gaussian, Inc., Wallingford CT, 2016.
 
 ******************************************
 Gaussian 16:  ES64L-G16RevA.03 25-Dec-2016
                 6-May-2025 
 ******************************************
 %chk=i2.chk
 %mem=616Gb
 %nprocshared=24
 Will use up to   24 processors via shared memory.
 ----------------------------------------------------------------------
 #P UMN15/genecp scf=(maxcyc=500) freq scrf=(smd,solvent=DiChloroEthane
 )
 ----------------------------------------------------------------------
 1/10=4,30=1,38=1/1,3;
 2/12=2,17=6,18=5,40=1/2;
 3/5=7,11=2,16=1,17=8,25=1,30=1,70=32201,71=2,72=10,74=-73,116=2,140=1/1,2,3;
 4//1;
 5/5=2,7=500,38=5,53=10,98=1/2;
 8/6=4,10=90,11=11/1;
 11/6=1,8=1,9=11,15=111,16=1/1,2,10;
 10/6=1/2;
 6/7=2,8=2,9=2,10=2,28=1/1;
 7/8=1,10=1,25=1/1,2,3,16;
 1/10=4,30=1/3;
 99//99;
 Leave Link    1 at Tue May  6 02:18:47 2025, MaxMem= 82678120448 cpu:               4.9 elap:               0.4
 (Enter /sysapps/ubuntu-applications/gaussian-new/avx/g16/l101.exe)
 ----
 freq
 ----
 Symbolic Z-matrix:
 Charge =  0 Multiplicity = 2
 C                     1.47882  -0.1487   -1.21883 
 C                     1.38116   0.29545   0.18023 
 C                     0.27186  -0.25317  -2.05737 
 O                    -0.85081   0.03837  -1.6737 
 O                     0.3926    0.83721   0.64859 
 O                     2.47029   0.05444   0.88634 
 O                     0.52735  -0.6818   -3.27244 
 C                     2.50652   0.62897   2.20114 
 C                    -0.59654  -0.7881   -4.15342 
 H                     3.54599   0.56725   2.5414 
 H                     1.84315   0.06022   2.86626 
 H                     2.18601   1.67831   2.15591 
 H                    -0.23685  -1.30143  -5.05082 
 H                    -0.96326   0.21584  -4.41057 
 H                    -1.4104   -1.35073  -3.67661 
 O                    -3.06743  -1.58723  -0.53278 
 O                    -1.33898  -1.12535   2.00875 
 O                    -1.65061   2.89228  -0.59041 
 S                    -1.85525   3.643     0.66888 
 S                    -3.90598  -0.96256  -1.58121 
 S                    -0.2563   -2.10725   1.78018 
 O                    -2.01144   2.69113   1.79605 
 O                    -2.78426   4.75506   0.62406 
 O                    -3.81527   0.51309  -1.49731 
 O                    -3.85343  -1.55395  -2.90627 
 O                     0.22127  -2.16956   0.38996 
 O                     0.7856   -2.10908   2.80641 
 C                    -1.09102  -3.72404   2.02553 
 C                    -5.61095  -1.29615  -0.98911 
 C                    -0.23608   4.456     0.99009 
 F                    -0.20747  -4.69963   1.82285 
 F                    -2.09476  -3.87673   1.18245 
 F                    -1.54668  -3.81538   3.26574 
 F                    -5.76487  -0.79199   0.23087 
 F                    -5.83584  -2.60081  -0.94308 
 F                    -6.49716  -0.73457  -1.79769 
 F                     0.71898   3.56772   1.22109 
 F                    -0.34236   5.24924   2.04629 
 F                     0.10835   5.18818  -0.06208 
 C                     3.89     -0.00285  -1.79901 
 C                     4.84628  -1.18862  -1.40662 
 C                     6.2539   -0.75955  -1.34401 
 C                     4.73745  -2.19621  -2.4841 
 C                     3.01479  -3.18906   1.16923 
 C                     4.7869   -1.88698   2.11226 
 C                     3.71069  -2.77904   2.28969 
 H                     2.16502  -3.86778   1.21934 
 H                     5.38591  -1.53081   2.9528 
 H                     3.44091  -3.12533   3.2878 
 N                     7.35955  -0.42453  -1.37403 
 N                     4.65847  -2.96334  -3.34499 
 N                     4.44416  -1.82544  -0.11554 
 N                     5.13106  -1.419     0.92999 
 C                     3.41536  -2.68427  -0.06683 
 H                     2.92848  -2.95714  -1.00448 
 H                     4.10237   0.162    -2.86784 
 C                     3.9826    1.33831  -1.11118 
 C                     3.11573   2.31692  -1.62463 
 C                     4.81834   1.65402  -0.03556 
 C                     3.05229   3.58057  -1.03972 
 H                     2.48325   2.08634  -2.48813 
 C                     4.76922   2.93033   0.53136 
 H                     5.49859   0.91636   0.39105 
 C                     3.88034   3.88877   0.043 
 H                     2.35777   4.32522  -1.43252 
 H                     5.42522   3.16766   1.37141 
 H                     3.83364   4.87827   0.50267 
 Yb                   -2.05066   0.56167   0.36741 
 O                     2.59745  -0.61905  -1.76233 
 
 ITRead=  0  0  0  0  0  0  0  0  0  0  0  0  0  0  0  0  0  0  0  0
 ITRead=  0  0  0  0  0  0  0  0  0  0  0  0  0  0  0  0  0  0  0  0
 ITRead=  0  0  0  0  0  0  0  0  0  0  0  0  0  0  0  0  0  0  0  0
 ITRead=  0  0  0  0  0  0  0  0  0
 MicOpt= -1 -1 -1 -1 -1 -1 -1 -1 -1 -1 -1 -1 -1 -1 -1 -1 -1 -1 -1 -1
 MicOpt= -1 -1 -1 -1 -1 -1 -1 -1 -1 -1 -1 -1 -1 -1 -1 -1 -1 -1 -1 -1
 MicOpt= -1 -1 -1 -1 -1 -1 -1 -1 -1 -1 -1 -1 -1 -1 -1 -1 -1 -1 -1 -1
 MicOpt= -1 -1 -1 -1 -1 -1 -1 -1 -1
 NAtoms=     69 NQM=       69 NQMF=       0 NMMI=      0 NMMIF=      0
                NMic=       0 NMicF=      0.
                    Isotopes and Nuclear Properties:
 (Nuclear quadrupole moments (NQMom) in fm**2, nuclear magnetic moments (NMagM)
  in nuclear magnetons)

  Atom         1           2           3           4           5           6           7           8           9          10
 IAtWgt=          12          12          12          16          16          16          16          12          12           1
 AtmWgt=  12.0000000  12.0000000  12.0000000  15.9949146  15.9949146  15.9949146  15.9949146  12.0000000  12.0000000   1.0078250
 NucSpn=           0           0           0           0           0           0           0           0           0           1
 AtZEff=  -0.0000000  -0.0000000  -0.0000000  -0.0000000  -0.0000000  -0.0000000  -0.0000000  -0.0000000  -0.0000000  -0.0000000
 NQMom=    0.0000000   0.0000000   0.0000000   0.0000000   0.0000000   0.0000000   0.0000000   0.0000000   0.0000000   0.0000000
 NMagM=    0.0000000   0.0000000   0.0000000   0.0000000   0.0000000   0.0000000   0.0000000   0.0000000   0.0000000   2.7928460
 AtZNuc=   6.0000000   6.0000000   6.0000000   8.0000000   8.0000000   8.0000000   8.0000000   6.0000000   6.0000000   1.0000000

  Atom        11          12          13          14          15          16          17          18          19          20
 IAtWgt=           1           1           1           1           1          16          16          16          32          32
 AtmWgt=   1.0078250   1.0078250   1.0078250   1.0078250   1.0078250  15.9949146  15.9949146  15.9949146  31.9720718  31.9720718
 NucSpn=           1           1           1           1           1           0           0           0           0           0
 AtZEff=  -0.0000000  -0.0000000  -0.0000000  -0.0000000  -0.0000000  -0.0000000  -0.0000000  -0.0000000  -0.0000000  -0.0000000
 NQMom=    0.0000000   0.0000000   0.0000000   0.0000000   0.0000000   0.0000000   0.0000000   0.0000000   0.0000000   0.0000000
 NMagM=    2.7928460   2.7928460   2.7928460   2.7928460   2.7928460   0.0000000   0.0000000   0.0000000   0.0000000   0.0000000
 AtZNuc=   1.0000000   1.0000000   1.0000000   1.0000000   1.0000000   8.0000000   8.0000000   8.0000000  16.0000000  16.0000000

  Atom        21          22          23          24          25          26          27          28          29          30
 IAtWgt=          32          16          16          16          16          16          16          12          12          12
 AtmWgt=  31.9720718  15.9949146  15.9949146  15.9949146  15.9949146  15.9949146  15.9949146  12.0000000  12.0000000  12.0000000
 NucSpn=           0           0           0           0           0           0           0           0           0           0
 AtZEff=  -0.0000000  -0.0000000  -0.0000000  -0.0000000  -0.0000000  -0.0000000  -0.0000000  -0.0000000  -0.0000000  -0.0000000
 NQMom=    0.0000000   0.0000000   0.0000000   0.0000000   0.0000000   0.0000000   0.0000000   0.0000000   0.0000000   0.0000000
 NMagM=    0.0000000   0.0000000   0.0000000   0.0000000   0.0000000   0.0000000   0.0000000   0.0000000   0.0000000   0.0000000
 AtZNuc=  16.0000000   8.0000000   8.0000000   8.0000000   8.0000000   8.0000000   8.0000000   6.0000000   6.0000000   6.0000000

  Atom        31          32          33          34          35          36          37          38          39          40
 IAtWgt=          19          19          19          19          19          19          19          19          19          12
 AtmWgt=  18.9984032  18.9984032  18.9984032  18.9984032  18.9984032  18.9984032  18.9984032  18.9984032  18.9984032  12.0000000
 NucSpn=           1           1           1           1           1           1           1           1           1           0
 AtZEff=  -0.0000000  -0.0000000  -0.0000000  -0.0000000  -0.0000000  -0.0000000  -0.0000000  -0.0000000  -0.0000000  -0.0000000
 NQMom=    0.0000000   0.0000000   0.0000000   0.0000000   0.0000000   0.0000000   0.0000000   0.0000000   0.0000000   0.0000000
 NMagM=    2.6288670   2.6288670   2.6288670   2.6288670   2.6288670   2.6288670   2.6288670   2.6288670   2.6288670   0.0000000
 AtZNuc=   9.0000000   9.0000000   9.0000000   9.0000000   9.0000000   9.0000000   9.0000000   9.0000000   9.0000000   6.0000000

  Atom        41          42          43          44          45          46          47          48          49          50
 IAtWgt=          12          12          12          12          12          12           1           1           1          14
 AtmWgt=  12.0000000  12.0000000  12.0000000  12.0000000  12.0000000  12.0000000   1.0078250   1.0078250   1.0078250  14.0030740
 NucSpn=           0           0           0           0           0           0           1           1           1           2
 AtZEff=  -0.0000000  -0.0000000  -0.0000000  -0.0000000  -0.0000000  -0.0000000  -0.0000000  -0.0000000  -0.0000000  -0.0000000
 NQMom=    0.0000000   0.0000000   0.0000000   0.0000000   0.0000000   0.0000000   0.0000000   0.0000000   0.0000000   2.0440000
 NMagM=    0.0000000   0.0000000   0.0000000   0.0000000   0.0000000   0.0000000   2.7928460   2.7928460   2.7928460   0.4037610
 AtZNuc=   6.0000000   6.0000000   6.0000000   6.0000000   6.0000000   6.0000000   1.0000000   1.0000000   1.0000000   7.0000000

  Atom        51          52          53          54          55          56          57          58          59          60
 IAtWgt=          14          14          14          12           1           1          12          12          12          12
 AtmWgt=  14.0030740  14.0030740  14.0030740  12.0000000   1.0078250   1.0078250  12.0000000  12.0000000  12.0000000  12.0000000
 NucSpn=           2           2           2           0           1           1           0           0           0           0
 AtZEff=  -0.0000000  -0.0000000  -0.0000000  -0.0000000  -0.0000000  -0.0000000  -0.0000000  -0.0000000  -0.0000000  -0.0000000
 NQMom=    2.0440000   2.0440000   2.0440000   0.0000000   0.0000000   0.0000000   0.0000000   0.0000000   0.0000000   0.0000000
 NMagM=    0.4037610   0.4037610   0.4037610   0.0000000   2.7928460   2.7928460   0.0000000   0.0000000   0.0000000   0.0000000
 AtZNuc=   7.0000000   7.0000000   7.0000000   6.0000000   1.0000000   1.0000000   6.0000000   6.0000000   6.0000000   6.0000000

  Atom        61          62          63          64          65          66          67          68          69
 IAtWgt=           1          12           1          12           1           1           1         174          16
 AtmWgt=   1.0078250  12.0000000   1.0078250  12.0000000   1.0078250   1.0078250   1.0078250 173.9390000  15.9949146
 NucSpn=           1           0           1           0           1           1           1           0           0
 AtZEff=  -0.0000000  -0.0000000  -0.0000000  -0.0000000  -0.0000000  -0.0000000  -0.0000000  -0.0000000  -0.0000000
 NQMom=    0.0000000   0.0000000   0.0000000   0.0000000   0.0000000   0.0000000   0.0000000   0.0000000   0.0000000
 NMagM=    2.7928460   0.0000000   2.7928460   0.0000000   2.7928460   2.7928460   2.7928460   0.0000000   0.0000000
 AtZNuc=   1.0000000   6.0000000   1.0000000   6.0000000   1.0000000   1.0000000   1.0000000  70.0000000   8.0000000
 Leave Link  101 at Tue May  6 02:18:47 2025, MaxMem= 82678120448 cpu:               3.6 elap:               0.2
 (Enter /sysapps/ubuntu-applications/gaussian-new/avx/g16/l103.exe)

 GradGradGradGradGradGradGradGradGradGradGradGradGradGradGradGradGradGrad
 Berny optimization.
 Initialization pass.
 Trust Radius=3.00D-01 FncErr=1.00D-07 GrdErr=1.00D-07 EigMax=2.50D+02 EigMin=1.00D-04
 Number of steps in this run=      2 maximum allowed number of steps=      2.
 GradGradGradGradGradGradGradGradGradGradGradGradGradGradGradGradGradGrad

 Leave Link  103 at Tue May  6 02:18:47 2025, MaxMem= 82678120448 cpu:               2.4 elap:               0.2
 (Enter /sysapps/ubuntu-applications/gaussian-new/avx/g16/l202.exe)
 Stoichiometry    C22H16F9N4O14S3Yb(2)
 Framework group  C1[X(C22H16F9N4O14S3Yb)]
 Deg. of freedom   201
 Full point group                 C1      NOp   1
 Largest Abelian subgroup         C1      NOp   1
 Largest concise Abelian subgroup C1      NOp   1
                         Standard orientation:                         
 ---------------------------------------------------------------------
 Center     Atomic      Atomic             Coordinates (Angstroms)
 Number     Number       Type             X           Y           Z
 ---------------------------------------------------------------------
      1          6           0       -1.478817   -0.148701    1.218833
      2          6           0       -1.381163    0.295445   -0.180225
      3          6           0       -0.271860   -0.253168    2.057369
      4          8           0        0.850810    0.038374    1.673698
      5          8           0       -0.392602    0.837210   -0.648588
      6          8           0       -2.470293    0.054443   -0.886340
      7          8           0       -0.527351   -0.681798    3.272435
      8          6           0       -2.506518    0.628972   -2.201137
      9          6           0        0.596544   -0.788098    4.153418
     10          1           0       -3.545988    0.567246   -2.541400
     11          1           0       -1.843152    0.060224   -2.866260
     12          1           0       -2.186014    1.678307   -2.155913
     13          1           0        0.236852   -1.301432    5.050816
     14          1           0        0.963262    0.215837    4.410568
     15          1           0        1.410397   -1.350728    3.676611
     16          8           0        3.067432   -1.587232    0.532778
     17          8           0        1.338977   -1.125353   -2.008748
     18          8           0        1.650608    2.892279    0.590410
     19         16           0        1.855246    3.642997   -0.668884
     20         16           0        3.905980   -0.962560    1.581210
     21         16           0        0.256299   -2.107254   -1.780182
     22          8           0        2.011436    2.691127   -1.796045
     23          8           0        2.784260    4.755058   -0.624055
     24          8           0        3.815269    0.513094    1.497310
     25          8           0        3.853425   -1.553946    2.906273
     26          8           0       -0.221270   -2.169562   -0.389960
     27          8           0       -0.785603   -2.109084   -2.806405
     28          6           0        1.091017   -3.724043   -2.025528
     29          6           0        5.610945   -1.296153    0.989107
     30          6           0        0.236084    4.456003   -0.990085
     31          9           0        0.207468   -4.699629   -1.822846
     32          9           0        2.094760   -3.876729   -1.182446
     33          9           0        1.546683   -3.815377   -3.265740
     34          9           0        5.764873   -0.791991   -0.230869
     35          9           0        5.835837   -2.600805    0.943078
     36          9           0        6.497157   -0.734574    1.797689
     37          9           0       -0.718978    3.567720   -1.221085
     38          9           0        0.342357    5.249244   -2.046289
     39          9           0       -0.108352    5.188184    0.062077
     40          6           0       -3.889995   -0.002854    1.799007
     41          6           0       -4.846282   -1.188624    1.406624
     42          6           0       -6.253897   -0.759545    1.344013
     43          6           0       -4.737452   -2.196206    2.484098
     44          6           0       -3.014794   -3.189061   -1.169230
     45          6           0       -4.786896   -1.886981   -2.112264
     46          6           0       -3.710689   -2.779041   -2.289692
     47          1           0       -2.165024   -3.867784   -1.219344
     48          1           0       -5.385912   -1.530806   -2.952801
     49          1           0       -3.440914   -3.125334   -3.287799
     50          7           0       -7.359547   -0.424525    1.374025
     51          7           0       -4.658466   -2.963338    3.344994
     52          7           0       -4.444163   -1.825438    0.115538
     53          7           0       -5.131062   -1.419004   -0.929985
     54          6           0       -3.415360   -2.684268    0.066825
     55          1           0       -2.928477   -2.957140    1.004484
     56          1           0       -4.102373    0.162004    2.867844
     57          6           0       -3.982602    1.338309    1.111183
     58          6           0       -3.115726    2.316917    1.624631
     59          6           0       -4.818337    1.654022    0.035563
     60          6           0       -3.052288    3.580565    1.039721
     61          1           0       -2.483254    2.086342    2.488134
     62          6           0       -4.769215    2.930326   -0.531361
     63          1           0       -5.498585    0.916364   -0.391052
     64          6           0       -3.880344    3.888767   -0.043001
     65          1           0       -2.357772    4.325223    1.432517
     66          1           0       -5.425219    3.167658   -1.371407
     67          1           0       -3.833636    4.878271   -0.502666
     68         70           0        2.050664    0.561665   -0.367410
     69          8           0       -2.597447   -0.619045    1.762328
 ---------------------------------------------------------------------
 Rotational constants (GHZ):           0.0619393           0.0401162           0.0320341
 Leave Link  202 at Tue May  6 02:18:48 2025, MaxMem= 82678120448 cpu:               2.7 elap:               0.2
 (Enter /sysapps/ubuntu-applications/gaussian-new/avx/g16/l301.exe)
 General basis read from cards:  (5D, 7F)
 Centers:      10     11     12     13     14     15     47     48     49     55
 Centers:      56     61     63     65     66     67
 S 3 1.00
     Exponent=  1.3010701000D+01 Coefficients=  1.9682158000D-02
     Exponent=  1.9622572000D+00 Coefficients=  1.3796524000D-01
     Exponent=  4.4453796000D-01 Coefficients=  4.7831935000D-01
 S 1 1.00
     Exponent=  1.2194962000D-01 Coefficients=  1.0000000000D+00
 P 1 1.00
     Exponent=  8.0000000000D-01 Coefficients=  1.0000000000D+00
 ****
 Centers:       1      2      3      8      9     28     29     30     40     41
 Centers:      42     43     44     45     46     54     57     58     59     60
 Centers:      62     64
 S 5 1.00
     Exponent=  1.2384016938D+03 Coefficients=  5.4568832082D-03
     Exponent=  1.8629004992D+02 Coefficients=  4.0638409211D-02
     Exponent=  4.2251176346D+01 Coefficients=  1.8025593888D-01
     Exponent=  1.1676557932D+01 Coefficients=  4.6315121755D-01
     Exponent=  3.5930506482D+00 Coefficients=  4.4087173314D-01
 S 1 1.00
     Exponent=  4.0245147363D-01 Coefficients=  1.0000000000D+00
 S 1 1.00
     Exponent=  1.3090182668D-01 Coefficients=  1.0000000000D+00
 P 3 1.00
     Exponent=  9.4680970621D+00 Coefficients=  3.8387871728D-02
     Exponent=  2.0103545142D+00 Coefficients=  2.1117025112D-01
     Exponent=  5.4771004707D-01 Coefficients=  5.1328172114D-01
 P 1 1.00
     Exponent=  1.5268613795D-01 Coefficients=  1.0000000000D+00
 D 1 1.00
     Exponent=  8.0000000000D-01 Coefficients=  1.0000000000D+00
 ****
 Centers:      50     51     52     53
 S 5 1.00
     Exponent=  1.7128415853D+03 Coefficients= -5.3934125305D-03
     Exponent=  2.5764812677D+02 Coefficients= -4.0221581118D-02
     Exponent=  5.8458245853D+01 Coefficients= -1.7931144990D-01
     Exponent=  1.6198367905D+01 Coefficients= -4.6376317823D-01
     Exponent=  5.0052600809D+00 Coefficients= -4.4171422662D-01
 S 1 1.00
     Exponent=  5.8731856571D-01 Coefficients=  1.0000000000D+00
 S 1 1.00
     Exponent=  1.8764592253D-01 Coefficients=  1.0000000000D+00
 P 3 1.00
     Exponent=  1.3571470233D+01 Coefficients= -4.0072398852D-02
     Exponent=  2.9257372874D+00 Coefficients= -2.1807045028D-01
     Exponent=  7.9927750754D-01 Coefficients= -5.1294466049D-01
 P 1 1.00
     Exponent=  2.1954348034D-01 Coefficients=  1.0000000000D+00
 D 1 1.00
     Exponent=  1.0000000000D+00 Coefficients=  1.0000000000D+00
 ****
 Centers:       4      5      6      7     16     17     18     22     23     24
 Centers:      25     26     27     69
 S 5 1.00
     Exponent=  2.2661767785D+03 Coefficients= -5.3431809926D-03
     Exponent=  3.4087010191D+02 Coefficients= -3.9890039230D-02
     Exponent=  7.7363135167D+01 Coefficients= -1.7853911985D-01
     Exponent=  2.1479644940D+01 Coefficients= -4.6427684959D-01
     Exponent=  6.6589433124D+00 Coefficients= -4.4309745172D-01
 S 1 1.00
     Exponent=  8.0975975668D-01 Coefficients=  1.0000000000D+00
 S 1 1.00
     Exponent=  2.5530772234D-01 Coefficients=  1.0000000000D+00
 P 3 1.00
     Exponent=  1.7721504317D+01 Coefficients=  4.3394573193D-02
     Exponent=  3.8635505440D+00 Coefficients=  2.3094120765D-01
     Exponent=  1.0480920883D+00 Coefficients=  5.1375311064D-01
 P 1 1.00
     Exponent=  2.7641544411D-01 Coefficients=  1.0000000000D+00
 D 1 1.00
     Exponent=  1.2000000000D+00 Coefficients=  1.0000000000D+00
 ****
 Centers:      31     32     33     34     35     36     37     38     39
 S 5 1.00
     Exponent=  2.8948325990D+03 Coefficients= -5.3408255515D-03
     Exponent=  4.3541939120D+02 Coefficients= -3.9904258866D-02
     Exponent=  9.8843328866D+01 Coefficients= -1.7912768038D-01
     Exponent=  2.7485198001D+01 Coefficients= -4.6758090825D-01
     Exponent=  8.5405498171D+00 Coefficients= -4.4653131020D-01
 S 1 1.00
     Exponent=  1.0654578038D+00 Coefficients=  1.0000000000D+00
 S 1 1.00
     Exponent=  3.3247346748D-01 Coefficients=  1.0000000000D+00
 P 3 1.00
     Exponent=  2.2696633924D+01 Coefficients= -4.5212874436D-02
     Exponent=  4.9872339257D+00 Coefficients= -2.3754317067D-01
     Exponent=  1.3491613954D+00 Coefficients= -5.1287353587D-01
 P 1 1.00
     Exponent=  3.4829881977D-01 Coefficients=  1.0000000000D+00
 D 1 1.00
     Exponent=  1.4000000000D+00 Coefficients=  1.0000000000D+00
 ****
 Centers:      19     20     21
 S 5 1.00
     Exponent=  9.1849303010D+03 Coefficients= -2.2294387756D-03
     Exponent=  1.3815105503D+03 Coefficients= -1.6683029937D-02
     Exponent=  3.1387147580D+02 Coefficients= -7.5262436116D-02
     Exponent=  8.8053870623D+01 Coefficients= -1.9376827038D-01
     Exponent=  2.7039914905D+01 Coefficients= -1.7718020803D-01
 S 3 1.00
     Exponent=  4.5648731303D+01 Coefficients= -1.0736062573D-01
     Exponent=  4.9664522326D+00 Coefficients=  6.5066293018D-01
     Exponent=  2.0116242047D+00 Coefficients=  5.9712155354D-01
 S 1 1.00
     Exponent=  3.5661077013D-01 Coefficients=  1.0000000000D+00
 S 1 1.00
     Exponent=  1.3507221477D-01 Coefficients=  1.0000000000D+00
 P 5 1.00
     Exponent=  2.6198233439D+02 Coefficients= -9.2729929822D-03
     Exponent=  6.1306894736D+01 Coefficients= -6.6547669241D-02
     Exponent=  1.9103729887D+01 Coefficients= -2.4828595903D-01
     Exponent=  6.6567720378D+00 Coefficients= -4.8703847402D-01
     Exponent=  2.3959635161D+00 Coefficients= -3.9337850312D-01
 P 1 1.00
     Exponent=  6.1776161679D-01 Coefficients=  1.0000000000D+00
 P 1 1.00
     Exponent=  1.6993376871D-01 Coefficients=  1.0000000000D+00
 D 1 1.00
     Exponent=  5.5000000000D-01 Coefficients=  1.0000000000D+00
 ****
 Centers:      68
 S 5 1.00
     Exponent=  9.1972903000D+04 Coefficients=  5.1000000000D-05
     Exponent=  1.3787371000D+04 Coefficients=  3.8600000000D-04
     Exponent=  3.1236135000D+03 Coefficients=  1.8440000000D-03
     Exponent=  8.7147540000D+02 Coefficients=  5.3560000000D-03
     Exponent=  2.5046300000D+02 Coefficients=  8.8590000000D-03
 S 1 1.00
     Exponent=  5.8282700000D+01 Coefficients=  1.0000000000D+00
 S 1 1.00
     Exponent=  4.1630500000D+01 Coefficients=  1.0000000000D+00
 S 1 1.00
     Exponent=  2.0216400000D+01 Coefficients=  1.0000000000D+00
 S 1 1.00
     Exponent=  4.9972000000D+00 Coefficients=  1.0000000000D+00
 S 1 1.00
     Exponent=  2.4822000000D+00 Coefficients=  1.0000000000D+00
 S 1 1.00
     Exponent=  9.1790000000D-01 Coefficients=  1.0000000000D+00
 S 1 1.00
     Exponent=  3.8530000000D-01 Coefficients=  1.0000000000D+00
 S 1 1.00
     Exponent=  6.1400000000D-02 Coefficients=  1.0000000000D+00
 S 1 1.00
     Exponent=  2.5000000000D-02 Coefficients=  1.0000000000D+00
 P 3 1.00
     Exponent=  1.2274108000D+01 Coefficients= -1.5252141000D-01
     Exponent=  1.0695631000D+01 Coefficients= -2.0243492000D-01
     Exponent=  2.0359782000D+00 Coefficients= -1.9621046000D-01
 P 6 1.00
     Exponent=  1.4975567000D+03 Coefficients= -1.0182934000D-03
     Exponent=  3.7504101000D+02 Coefficients= -6.0919401000D-03
     Exponent=  1.2869727000D+02 Coefficients= -1.7077693000D-02
     Exponent=  4.5270759000D+01 Coefficients= -3.5655508000D-02
     Exponent=  1.4906971000D+01 Coefficients=  2.3732226000D-01
     Exponent=  5.6450858000D+00 Coefficients= -3.0559689000D-01
 P 1 1.00
     Exponent=  3.6752106000D+00 Coefficients=  1.0000000000D+00
 P 1 1.00
     Exponent=  1.3296961000D+00 Coefficients=  1.0000000000D+00
 P 1 1.00
     Exponent=  5.5338966000D-01 Coefficients=  1.0000000000D+00
 P 1 1.00
     Exponent=  2.2382350000D-01 Coefficients=  1.0000000000D+00
 P 1 1.00
     Exponent=  6.8350467650D-02 Coefficients=  1.0000000000D+00
 P 1 1.00
     Exponent=  2.5355670803D-02 Coefficients=  1.0000000000D+00
 D 6 1.00
     Exponent=  4.6976060000D+02 Coefficients=  1.9840000000D-03
     Exponent=  1.4261280000D+02 Coefficients=  1.6013000000D-02
     Exponent=  5.5126700000D+01 Coefficients=  6.3153000000D-02
     Exponent=  2.3441500000D+01 Coefficients=  1.3780000000D-01
     Exponent=  9.4951000000D+00 Coefficients=  2.8549800000D-01
     Exponent=  4.5792000000D+00 Coefficients=  4.3830900000D-01
 D 1 1.00
     Exponent=  2.1646000000D+00 Coefficients=  1.0000000000D+00
 D 1 1.00
     Exponent=  9.2380000000D-01 Coefficients=  1.0000000000D+00
 D 1 1.00
     Exponent=  3.1070000000D-01 Coefficients=  1.0000000000D+00
 D 1 1.00
     Exponent=  9.1400000000D-02 Coefficients=  1.0000000000D+00
 F 5 1.00
     Exponent=  1.4202930000D+02 Coefficients=  5.9570000000D-03
     Exponent=  5.1086200000D+01 Coefficients=  5.3180000000D-02
     Exponent=  2.2874100000D+01 Coefficients=  1.7807600000D-01
     Exponent=  1.0502500000D+01 Coefficients=  3.0060000000D-01
     Exponent=  4.7872000000D+00 Coefficients=  3.5034200000D-01
 F 1 1.00
     Exponent=  2.1088000000D+00 Coefficients=  1.0000000000D+00
 F 1 1.00
     Exponent=  8.6090000000D-01 Coefficients=  1.0000000000D+00
 F 1 1.00
     Exponent=  3.0600000000D-01 Coefficients=  1.0000000000D+00
 G 1 1.00
     Exponent=  5.1330000000D-01 Coefficients=  1.0000000000D+00
 ****
 ======================================================================================================
                                       Pseudopotential Parameters
 ======================================================================================================
  Center     Atomic      Valence      Angular      Power
  Number     Number     Electrons     Momentum     of R      Exponent        Coefficient   SO-Coeffient
 ======================================================================================================
    1          6
                                   No pseudopotential on this center.
    2          6
                                   No pseudopotential on this center.
    3          6
                                   No pseudopotential on this center.
    4          8
                                   No pseudopotential on this center.
    5          8
                                   No pseudopotential on this center.
    6          8
                                   No pseudopotential on this center.
    7          8
                                   No pseudopotential on this center.
    8          6
                                   No pseudopotential on this center.
    9          6
                                   No pseudopotential on this center.
   10          1
                                   No pseudopotential on this center.
   11          1
                                   No pseudopotential on this center.
   12          1
                                   No pseudopotential on this center.
   13          1
                                   No pseudopotential on this center.
   14          1
                                   No pseudopotential on this center.
   15          1
                                   No pseudopotential on this center.
   16          8
                                   No pseudopotential on this center.
   17          8
                                   No pseudopotential on this center.
   18          8
                                   No pseudopotential on this center.
   19         16
                                   No pseudopotential on this center.
   20         16
                                   No pseudopotential on this center.
   21         16
                                   No pseudopotential on this center.
   22          8
                                   No pseudopotential on this center.
   23          8
                                   No pseudopotential on this center.
   24          8
                                   No pseudopotential on this center.
   25          8
                                   No pseudopotential on this center.
   26          8
                                   No pseudopotential on this center.
   27          8
                                   No pseudopotential on this center.
   28          6
                                   No pseudopotential on this center.
   29          6
                                   No pseudopotential on this center.
   30          6
                                   No pseudopotential on this center.
   31          9
                                   No pseudopotential on this center.
   32          9
                                   No pseudopotential on this center.
   33          9
                                   No pseudopotential on this center.
   34          9
                                   No pseudopotential on this center.
   35          9
                                   No pseudopotential on this center.
   36          9
                                   No pseudopotential on this center.
   37          9
                                   No pseudopotential on this center.
   38          9
                                   No pseudopotential on this center.
   39          9
                                   No pseudopotential on this center.
   40          6
                                   No pseudopotential on this center.
   41          6
                                   No pseudopotential on this center.
   42          6
                                   No pseudopotential on this center.
   43          6
                                   No pseudopotential on this center.
   44          6
                                   No pseudopotential on this center.
   45          6
                                   No pseudopotential on this center.
   46          6
                                   No pseudopotential on this center.
   47          1
                                   No pseudopotential on this center.
   48          1
                                   No pseudopotential on this center.
   49          1
                                   No pseudopotential on this center.
   50          7
                                   No pseudopotential on this center.
   51          7
                                   No pseudopotential on this center.
   52          7
                                   No pseudopotential on this center.
   53          7
                                   No pseudopotential on this center.
   54          6
                                   No pseudopotential on this center.
   55          1
                                   No pseudopotential on this center.
   56          1
                                   No pseudopotential on this center.
   57          6
                                   No pseudopotential on this center.
   58          6
                                   No pseudopotential on this center.
   59          6
                                   No pseudopotential on this center.
   60          6
                                   No pseudopotential on this center.
   61          1
                                   No pseudopotential on this center.
   62          6
                                   No pseudopotential on this center.
   63          1
                                   No pseudopotential on this center.
   64          6
                                   No pseudopotential on this center.
   65          1
                                   No pseudopotential on this center.
   66          1
                                   No pseudopotential on this center.
   67          1
                                   No pseudopotential on this center.
   68         70           42
                                      H and up 
                                                     2        1.0000000        0.00000000    0.00000000
                                      S - H
                                                     2       32.4244840      891.01377700    0.00000000
                                      P - H
                                                     2       18.6562320      264.03695300    0.00000000
                                      D - H
                                                     2       10.4902220       73.92391900    0.00000000
                                      F - H
                                                     2       20.7741830      -39.59217300    0.00000000
                                      G - H
                                                     2       28.4310280      -34.63863800    0.00000000
   69          8
                                   No pseudopotential on this center.
 ======================================================================================================
 Ernie: Thresh=  0.10000D-02 Tol=  0.10000D-05 Strict=F.
 There are   991 symmetry adapted cartesian basis functions of A   symmetry.
 There are   916 symmetry adapted basis functions of A   symmetry.
   916 basis functions,  1662 primitive gaussians,   991 cartesian basis functions
   230 alpha electrons      229 beta electrons
       nuclear repulsion energy     11507.9948152105 Hartrees.
 IExCor= 7252 DFT=T Ex+Corr=MN15 ExCW=0 ScaHFX=  0.440000
 ScaDFX=  1.000000  1.000000  1.000000  1.000000 ScalE2=  1.000000  1.000000
 IRadAn=      5 IRanWt=     -1 IRanGd=            0 ICorTp=0 IEmpDi=  4
 NAtoms=   69 NActive=   69 NUniq=   69 SFac= 1.00D+00 NAtFMM=   60 NAOKFM=T Big=T
 Integral buffers will be    131072 words long.
 Raffenetti 2 integral format.
 Two-electron integral symmetry is turned on.
 Force inversion solution in PCM.
 ------------------------------------------------------------------------------
 Polarizable Continuum Model (PCM)
 =================================
 Model                : PCM.
 Atomic radii         : SMD-Coulomb.
 Polarization charges : Total charges.
 Charge compensation  : None.
 Solution method      : Matrix inversion.
 Cavity type          : VdW (van der Waals Surface) (Alpha=1.000).
 Cavity algorithm     : GePol (No added spheres)
                        Default sphere list used, NSphG=   69.
                        Lebedev-Laikov grids with approx.  5.0 points / Ang**2.
                        Smoothing algorithm: York/Karplus (Gamma=1.0000).
                        Polarization charges: spherical gaussians, with
                                              point-specific exponents (IZeta= 3).
                        Self-potential: point-specific (ISelfS= 7).
                        Self-field    : sphere-specific E.n sum rule (ISelfD= 2).
 1st derivatives      : Analytical E(r).r(x)/FMM algorithm (CHGder, D1EAlg=3).
                        Cavity 1st derivative terms included.
 2nd derivatives      : Analytical E(r).r(xy)/FMM algorithm (CHGder, D2EAlg=3).
                        Cavity 2nd derivative terms included.
 Solvent              : DiChloroEthane, Eps=  10.125000 Eps(inf)=   2.087447
 ------------------------------------------------------------------------------
 GePol: Number of generator spheres                  =      69
 GePol: Total number of spheres                      =      69
 GePol: Number of exposed spheres                    =      69 (100.00%)
 GePol: Number of points                             =    4930
 GePol: Average weight of points                     =       0.13
 GePol: Minimum weight of points                     =   0.70D-11
 GePol: Maximum weight of points                     =    0.21501
 GePol: Number of points with low weight             =     318
 GePol: Fraction of low-weight points (<1% of avg)   =       6.45%
 GePol: Cavity surface area                          =    641.487 Ang**2
 GePol: Cavity volume                                =    781.545 Ang**3
 ------------------------------------------------------------------------------
 Atomic radii for non-electrostatic terms: SMD-CDS.
 ------------------------------------------------------------------------------
 PCM non-electrostatic energy =         0.0072904065 Hartrees.
 Nuclear repulsion after PCM non-electrostatic terms =    11508.0021056171 Hartrees.
 Leave Link  301 at Tue May  6 02:18:48 2025, MaxMem= 82678120448 cpu:               4.1 elap:               0.3
 (Enter /sysapps/ubuntu-applications/gaussian-new/avx/g16/l302.exe)
 NPDir=0 NMtPBC=     1 NCelOv=     1 NCel=       1 NClECP=     1 NCelD=      1
         NCelK=      1 NCelE2=     1 NClLst=     1 CellRange=     0.0.
 One-electron integrals computed using PRISM.
 One-electron integral symmetry used in STVInt
   1 Symmetry operations used in ECPInt.
 ECPInt:  NShTT=   77815 NPrTT=  297642 LenC2=   60431 LenP2D=  140490.
 LDataN:  DoStor=T MaxTD1= 9 Len=  602
 NBasis=   916 RedAO= T EigKep=  2.06D-04  NBF=   916
 NBsUse=   916 1.00D-06 EigRej= -1.00D+00 NBFU=   916
 Precomputing XC quadrature grid using
 IXCGrd= 4 IRadAn=           5 IRanWt=          -1 IRanGd=           0 AccXCQ= 0.00D+00.
 Defaulting to unpruned grid for atomic number  70.
 Generated NRdTot=       0 NPtTot=           0 NUsed=           0 NTot=          32
 NSgBfM=   966   964   965   965   966 MxSgAt=    69 MxSgA2=    69.
 Leave Link  302 at Tue May  6 02:18:53 2025, MaxMem= 82678120448 cpu:             113.4 elap:               4.9
 (Enter /sysapps/ubuntu-applications/gaussian-new/avx/g16/l303.exe)
 DipDrv:  MaxL=1.
 Leave Link  303 at Tue May  6 02:18:54 2025, MaxMem= 82678120448 cpu:              13.6 elap:               0.7
 (Enter /sysapps/ubuntu-applications/gaussian-new/avx/g16/l401.exe)
 ExpMin= 2.50D-02 ExpMax= 9.20D+04 ExpMxC= 1.38D+04 IAcc=3 IRadAn=         5 AccDes= 0.00D+00
 Harris functional with IExCor= 1009 and IRadAn=       5 diagonalized for initial guess.
 HarFok:  IExCor= 1009 AccDes= 0.00D+00 IRadAn=         5 IDoV= 1 UseB2=F ITyADJ=14
 ICtDFT=  3500011 ScaDFX=  1.000000  1.000000  1.000000  1.000000
 Defaulting to unpruned grid for atomic number  70.
 FoFCou: FMM=F IPFlag=           0 FMFlag=      100000 FMFlg1=        2001
         NFxFlg=           0 DoJE=T BraDBF=F KetDBF=T FulRan=T
         wScrn=  0.000000 ICntrl=       500 IOpCl=  0 I1Cent=   200000004 NGrid=           0
         NMat0=    1 NMatS0=      1 NMatT0=    0 NMatD0=    1 NMtDS0=    0 NMtDT0=    0
 Petite list used in FoFCou.
 Harris En= -5369.63592518669    
 JPrj=0 DoOrth=F DoCkMO=F.
 Initial guess <Sx>= 0.0000 <Sy>= 0.0000 <Sz>= 0.5000 <S**2>= 0.7500 S= 0.5000
 Leave Link  401 at Tue May  6 02:19:01 2025, MaxMem= 82678120448 cpu:             175.0 elap:               7.4
 (Enter /sysapps/ubuntu-applications/gaussian-new/avx/g16/l502.exe)
 Integral symmetry usage will be decided dynamically.
 UHF open shell SCF:
 Using DIIS extrapolation, IDIIS=  1040.
 NGot= 82678120448 LenX= 82676122521 LenY= 82675139449
 Requested convergence on RMS density matrix=1.00D-08 within 500 cycles.
 Requested convergence on MAX density matrix=1.00D-06.
 Requested convergence on             energy=1.00D-06.
 No special actions if energy rises.
 Fock matrices will be formed incrementally for  20 cycles.

 Cycle   1  Pass 1  IDiag  1:
 FoFJK:  IHMeth= 1 ICntrl=       0 DoSepK=F KAlg= 0 I1Cent=           0 FoldK=F
 IRaf= 880000000 NMat=       1 IRICut=       1 DoRegI=T DoRafI=F ISym2E= 0 IDoP0=0 IntGTp=1.
 FoFCou: FMM=T IPFlag=           0 FMFlag=      100000 FMFlg1=        2001
         NFxFlg=           0 DoJE=F BraDBF=F KetDBF=F FulRan=T
         wScrn=  0.000000 ICntrl=         0 IOpCl=  1 I1Cent=           0 NGrid=           0
         NMat0=    1 NMatS0=      1 NMatT0=    0 NMatD0=    1 NMtDS0=    0 NMtDT0=    0
 Symmetry not used in FoFCou.
 FMM levels:  10  Number of levels for PrismC:   9
 Defaulting to unpruned grid for atomic number  70.
 Defaulting to unpruned grid for atomic number  70.
 Defaulting to unpruned grid for atomic number  70.
 Defaulting to unpruned grid for atomic number  70.
 Defaulting to unpruned grid for atomic number  70.
 Defaulting to unpruned grid for atomic number  70.
 Defaulting to unpruned grid for atomic number  70.
 Defaulting to unpruned grid for atomic number  70.
 Defaulting to unpruned grid for atomic number  70.
 Defaulting to unpruned grid for atomic number  70.
 Defaulting to unpruned grid for atomic number  70.
 Defaulting to unpruned grid for atomic number  70.
 Defaulting to unpruned grid for atomic number  70.
 Defaulting to unpruned grid for atomic number  70.
 Defaulting to unpruned grid for atomic number  70.
 Defaulting to unpruned grid for atomic number  70.
 Defaulting to unpruned grid for atomic number  70.
 Defaulting to unpruned grid for atomic number  70.
 Defaulting to unpruned grid for atomic number  70.
 Defaulting to unpruned grid for atomic number  70.
 Defaulting to unpruned grid for atomic number  70.
 Defaulting to unpruned grid for atomic number  70.
 Defaulting to unpruned grid for atomic number  70.
 Defaulting to unpruned grid for atomic number  70.
 Inv3:  Mode=1 IEnd=    72914700.
 Iteration    1 A*A^-1 deviation from unit magnitude is 7.44D-15 for   4913.
 Iteration    1 A*A^-1 deviation from orthogonality  is 4.34D-15 for   4896   4273.
 Iteration    1 A^-1*A deviation from unit magnitude is 7.44D-15 for   4913.
 Iteration    1 A^-1*A deviation from orthogonality  is 6.08D-15 for   4918   4413.
 E= -5363.86345171498    
 DIIS: error= 2.24D-01 at cycle   1 NSaved=   1.
 NSaved= 1 IEnMin= 1 EnMin= -5363.86345171498     IErMin= 1 ErrMin= 2.24D-01
 ErrMax= 2.24D-01  0.00D+00 EMaxC= 1.00D-01 BMatC= 1.38D+02 BMatP= 1.38D+02
 IDIUse=3 WtCom= 0.00D+00 WtEn= 1.00D+00
 Coeff-Com:  0.100D+01
 Coeff-En:   0.100D+01
 Coeff:      0.100D+01
 Gap=     0.166 Goal=   None    Shift=    0.000
 Gap=     0.190 Goal=   None    Shift=    0.000
 GapD=    0.166 DampG=1.000 DampE=0.125 DampFc=0.1250 IDamp=-1.
 Damping current iteration by 1.25D-01
 RMSDP=1.71D-02 MaxDP=2.75D+00              OVMax= 9.88D-01

 Cycle   2  Pass 1  IDiag  1:
 RMSU=  2.13D-03    CP:  9.93D-01
 E= -5365.31815173515     Delta-E=       -1.454700020175 Rises=F Damp=T
 DIIS: error= 8.96D-02 at cycle   2 NSaved=   2.
 NSaved= 2 IEnMin= 2 EnMin= -5365.31815173515     IErMin= 2 ErrMin= 8.96D-02
 ErrMax= 8.96D-02  0.00D+00 EMaxC= 1.00D-01 BMatC= 2.71D+01 BMatP= 1.38D+02
 IDIUse=3 WtCom= 1.04D-01 WtEn= 8.96D-01
 Coeff-Com: -0.614D+00 0.161D+01
 Coeff-En:   0.239D+00 0.761D+00
 Coeff:      0.150D+00 0.850D+00
 Gap=     0.140 Goal=   None    Shift=    0.000
 Gap=    -0.070 Goal=   None    Shift=    0.000
 RMSDP=3.32D-03 MaxDP=5.33D-01 DE=-1.45D+00 OVMax= 9.53D-01

 Cycle   3  Pass 1  IDiag  1:
 RMSU=  3.00D-03    CP:  9.70D-01  3.48D-01
 E= -5365.38618272969     Delta-E=       -0.068030994535 Rises=F Damp=F
 DIIS: error= 1.55D-01 at cycle   3 NSaved=   3.
 NSaved= 3 IEnMin= 3 EnMin= -5365.38618272969     IErMin= 2 ErrMin= 8.96D-02
 ErrMax= 1.55D-01  0.00D+00 EMaxC= 1.00D-01 BMatC= 7.52D+01 BMatP= 2.71D+01
 IDIUse=2 WtCom= 0.00D+00 WtEn= 1.00D+00
 EnCoef did     4 forward-backward iterations
 Coeff-En:   0.393D+00 0.446D-01 0.562D+00
 Coeff:      0.393D+00 0.446D-01 0.562D+00
 Gap=     0.636 Goal=   None    Shift=    0.000
 Gap=     0.530 Goal=   None    Shift=    0.000
 RMSDP=6.92D-03 MaxDP=1.04D+00 DE=-6.80D-02 OVMax= 9.99D-01

 Cycle   4  Pass 1  IDiag  1:
 RMSU=  5.20D-03    CP:  9.61D-01  2.15D+00  1.89D-01
 E= -5252.66397289024     Delta-E=      112.722209839445 Rises=F Damp=F
 DIIS: error= 5.50D-01 at cycle   4 NSaved=   4.
 NSaved= 4 IEnMin= 3 EnMin= -5365.38618272969     IErMin= 2 ErrMin= 8.96D-02
 ErrMax= 5.50D-01  0.00D+00 EMaxC= 1.00D-01 BMatC= 6.86D+02 BMatP= 2.71D+01
 IDIUse=2 WtCom= 0.00D+00 WtEn= 1.00D+00
 EnCoef did   100 forward-backward iterations
 Coeff-En:   0.445D+00 0.169D-01 0.511D+00 0.266D-01
 Coeff:      0.445D+00 0.169D-01 0.511D+00 0.266D-01
 Gap=     0.020 Goal=   None    Shift=    0.000
 Gap=     0.021 Goal=   None    Shift=    0.000
 RMSDP=6.61D-03 MaxDP=1.02D+00 DE= 1.13D+02 OVMax= 1.00D+00

 Cycle   5  Pass 1  IDiag  1:
 RMSU=  1.05D-03    CP:  9.78D-01  2.40D-01  4.53D-01  3.61D-02
 E= -5368.70593854678     Delta-E=     -116.041965656534 Rises=F Damp=F
 DIIS: error= 7.69D-03 at cycle   5 NSaved=   5.
 NSaved= 5 IEnMin= 5 EnMin= -5368.70593854678     IErMin= 5 ErrMin= 7.69D-03
 ErrMax= 7.69D-03  0.00D+00 EMaxC= 1.00D-01 BMatC= 4.84D-01 BMatP= 2.71D+01
 IDIUse=3 WtCom= 9.23D-01 WtEn= 7.69D-02
 Coeff-Com:  0.960D-01 0.100D+00 0.196D+00 0.319D-02 0.605D+00
 Coeff-En:   0.000D+00 0.000D+00 0.000D+00 0.000D+00 0.100D+01
 Coeff:      0.886D-01 0.927D-01 0.181D+00 0.294D-02 0.635D+00
 Gap=     0.201 Goal=   None    Shift=    0.000
 Gap=     0.168 Goal=   None    Shift=    0.000
 RMSDP=6.03D-04 MaxDP=5.10D-02 DE=-1.16D+02 OVMax= 5.74D-02

 Cycle   6  Pass 1  IDiag  1:
 RMSU=  4.17D-04    CP:  9.78D-01  2.18D-01  5.14D-01  1.95D-02  6.37D-01
 E= -5368.73867998272     Delta-E=       -0.032741435945 Rises=F Damp=F
 DIIS: error= 7.55D-03 at cycle   6 NSaved=   6.
 NSaved= 6 IEnMin= 6 EnMin= -5368.73867998272     IErMin= 6 ErrMin= 7.55D-03
 ErrMax= 7.55D-03  0.00D+00 EMaxC= 1.00D-01 BMatC= 4.53D-01 BMatP= 4.84D-01
 IDIUse=3 WtCom= 9.25D-01 WtEn= 7.55D-02
 Coeff-Com: -0.548D-01 0.906D-01 0.161D-01-0.248D-02 0.388D+00 0.562D+00
 Coeff-En:   0.000D+00 0.000D+00 0.000D+00 0.000D+00 0.391D+00 0.609D+00
 Coeff:     -0.506D-01 0.837D-01 0.149D-01-0.229D-02 0.389D+00 0.566D+00
 Gap=     0.180 Goal=   None    Shift=    0.000
 Gap=     0.157 Goal=   None    Shift=    0.000
 RMSDP=2.51D-04 MaxDP=2.32D-02 DE=-3.27D-02 OVMax= 3.25D-02

 Cycle   7  Pass 1  IDiag  1:
 RMSU=  1.13D-04    CP:  9.78D-01  2.29D-01  5.01D-01  2.59D-02  7.73D-01
                    CP:  6.12D-01
 E= -5368.78803280095     Delta-E=       -0.049352818223 Rises=F Damp=F
 DIIS: error= 1.71D-03 at cycle   7 NSaved=   7.
 NSaved= 7 IEnMin= 7 EnMin= -5368.78803280095     IErMin= 7 ErrMin= 1.71D-03
 ErrMax= 1.71D-03  0.00D+00 EMaxC= 1.00D-01 BMatC= 3.08D-02 BMatP= 4.53D-01
 IDIUse=3 WtCom= 9.83D-01 WtEn= 1.71D-02
 Coeff-Com: -0.558D-01 0.735D-01-0.861D-02-0.198D-02 0.147D+00 0.292D+00
 Coeff-Com:  0.554D+00
 Coeff-En:   0.000D+00 0.000D+00 0.000D+00 0.000D+00 0.000D+00 0.000D+00
 Coeff-En:   0.100D+01
 Coeff:     -0.548D-01 0.722D-01-0.847D-02-0.195D-02 0.144D+00 0.287D+00
 Coeff:      0.562D+00
 Gap=     0.180 Goal=   None    Shift=    0.000
 Gap=     0.163 Goal=   None    Shift=    0.000
 RMSDP=6.76D-05 MaxDP=7.79D-03 DE=-4.94D-02 OVMax= 9.41D-03

 Cycle   8  Pass 1  IDiag  1:
 RMSU=  4.61D-05    CP:  9.78D-01  2.24D-01  4.97D-01  2.53D-02  7.60D-01
                    CP:  6.81D-01  7.08D-01
 E= -5368.78916434383     Delta-E=       -0.001131542887 Rises=F Damp=F
 DIIS: error= 2.57D-03 at cycle   8 NSaved=   8.
 NSaved= 8 IEnMin= 8 EnMin= -5368.78916434383     IErMin= 7 ErrMin= 1.71D-03
 ErrMax= 2.57D-03  0.00D+00 EMaxC= 1.00D-01 BMatC= 3.75D-02 BMatP= 3.08D-02
 IDIUse=3 WtCom= 9.83D-01 WtEn= 1.71D-02
 Coeff-Com: -0.472D-01 0.643D-01-0.728D-02-0.148D-02 0.270D-01 0.812D-01
 Coeff-Com:  0.310D+00 0.574D+00
 Coeff-En:   0.000D+00 0.000D+00 0.000D+00 0.000D+00 0.000D+00 0.000D+00
 Coeff-En:   0.315D+00 0.685D+00
 Coeff:     -0.464D-01 0.632D-01-0.715D-02-0.145D-02 0.265D-01 0.798D-01
 Coeff:      0.310D+00 0.575D+00
 Gap=     0.179 Goal=   None    Shift=    0.000
 Gap=     0.158 Goal=   None    Shift=    0.000
 RMSDP=2.96D-05 MaxDP=3.08D-03 DE=-1.13D-03 OVMax= 4.91D-03

 Cycle   9  Pass 1  IDiag  1:
 RMSU=  2.04D-05    CP:  9.78D-01  2.27D-01  4.98D-01  2.58D-02  7.73D-01
                    CP:  6.78D-01  7.74D-01  7.20D-01
 E= -5368.79030259817     Delta-E=       -0.001138254336 Rises=F Damp=F
 DIIS: error= 2.61D-03 at cycle   9 NSaved=   9.
 NSaved= 9 IEnMin= 9 EnMin= -5368.79030259817     IErMin= 7 ErrMin= 1.71D-03
 ErrMax= 2.61D-03  0.00D+00 EMaxC= 1.00D-01 BMatC= 3.35D-02 BMatP= 3.08D-02
 IDIUse=3 WtCom= 9.83D-01 WtEn= 1.71D-02
 Coeff-Com: -0.391D-01 0.554D-01-0.335D-02-0.107D-02-0.363D-01-0.541D-01
 Coeff-Com: -0.330D-01 0.281D+00 0.830D+00
 Coeff-En:   0.000D+00 0.000D+00 0.000D+00 0.000D+00 0.000D+00 0.000D+00
 Coeff-En:   0.000D+00 0.000D+00 0.100D+01
 Coeff:     -0.385D-01 0.545D-01-0.329D-02-0.105D-02-0.357D-01-0.532D-01
 Coeff:     -0.325D-01 0.276D+00 0.833D+00
 Gap=     0.180 Goal=   None    Shift=    0.000
 Gap=     0.155 Goal=   None    Shift=    0.000
 RMSDP=1.84D-05 MaxDP=2.13D-03 DE=-1.14D-03 OVMax= 3.13D-03

 Cycle  10  Pass 1  IDiag  1:
 RMSU=  1.37D-05    CP:  9.78D-01  2.26D-01  4.96D-01  2.59D-02  7.75D-01
                    CP:  6.96D-01  8.15D-01  8.47D-01  9.13D-01
 E= -5368.79068802595     Delta-E=       -0.000385427778 Rises=F Damp=F
 DIIS: error= 2.43D-03 at cycle  10 NSaved=  10.
 NSaved=10 IEnMin=10 EnMin= -5368.79068802595     IErMin= 7 ErrMin= 1.71D-03
 ErrMax= 2.43D-03  0.00D+00 EMaxC= 1.00D-01 BMatC= 2.87D-02 BMatP= 3.08D-02
 IDIUse=3 WtCom= 9.83D-01 WtEn= 1.71D-02
 Coeff-Com: -0.290D-01 0.433D-01 0.188D-02-0.786D-03-0.559D-01-0.113D+00
 Coeff-Com: -0.289D+00-0.300D+00 0.475D+00 0.127D+01
 Coeff-En:   0.000D+00 0.000D+00 0.000D+00 0.000D+00 0.000D+00 0.000D+00
 Coeff-En:   0.000D+00 0.000D+00 0.000D+00 0.100D+01
 Coeff:     -0.285D-01 0.426D-01 0.185D-02-0.772D-03-0.549D-01-0.111D+00
 Coeff:     -0.284D+00-0.295D+00 0.466D+00 0.126D+01
 Gap=     0.177 Goal=   None    Shift=    0.000
 Gap=     0.151 Goal=   None    Shift=    0.000
 RMSDP=2.06D-05 MaxDP=2.49D-03 DE=-3.85D-04 OVMax= 3.60D-03

 Cycle  11  Pass 1  IDiag  1:
 RMSU=  1.27D-05    CP:  9.78D-01  2.27D-01  4.96D-01  2.62D-02  7.81D-01
                    CP:  7.08D-01  8.63D-01  9.60D-01  1.47D+00  8.70D-01
 E= -5368.79143842043     Delta-E=       -0.000750394478 Rises=F Damp=F
 DIIS: error= 1.88D-03 at cycle  11 NSaved=  11.
 NSaved=11 IEnMin=11 EnMin= -5368.79143842043     IErMin= 7 ErrMin= 1.71D-03
 ErrMax= 1.88D-03  0.00D+00 EMaxC= 1.00D-01 BMatC= 1.74D-02 BMatP= 2.87D-02
 IDIUse=3 WtCom= 9.83D-01 WtEn= 1.71D-02
 Coeff-Com: -0.160D-01 0.246D-01 0.369D-02-0.451D-03-0.369D-01-0.876D-01
 Coeff-Com: -0.260D+00-0.527D+00-0.350D+00 0.115D+01 0.110D+01
 Coeff-En:   0.000D+00 0.000D+00 0.000D+00 0.000D+00 0.000D+00 0.000D+00
 Coeff-En:   0.000D+00 0.000D+00 0.000D+00 0.000D+00 0.100D+01
 Coeff:     -0.158D-01 0.242D-01 0.363D-02-0.443D-03-0.363D-01-0.861D-01
 Coeff:     -0.255D+00-0.518D+00-0.344D+00 0.113D+01 0.110D+01
 Gap=     0.164 Goal=   None    Shift=    0.000
 Gap=     0.142 Goal=   None    Shift=    0.000
 RMSDP=2.46D-05 MaxDP=3.78D-03 DE=-7.50D-04 OVMax= 4.19D-03

 Cycle  12  Pass 1  IDiag  1:
 RMSU=  1.11D-05    CP:  9.78D-01  2.28D-01  4.95D-01  2.66D-02  7.94D-01
                    CP:  7.23D-01  8.85D-01  9.97D-01  1.94D+00  1.74D+00
                    CP:  1.10D+00
 E= -5368.79227865987     Delta-E=       -0.000840239445 Rises=F Damp=F
 DIIS: error= 9.72D-04 at cycle  12 NSaved=  12.
 NSaved=12 IEnMin=12 EnMin= -5368.79227865987     IErMin=12 ErrMin= 9.72D-04
 ErrMax= 9.72D-04  0.00D+00 EMaxC= 1.00D-01 BMatC= 4.87D-03 BMatP= 1.74D-02
 IDIUse=3 WtCom= 9.90D-01 WtEn= 9.72D-03
 Coeff-Com: -0.495D-02 0.712D-02 0.243D-04-0.190D-03 0.119D-01 0.170D-01
 Coeff-Com:  0.482D-01-0.122D+00-0.524D+00-0.180D+00 0.578D+00 0.117D+01
 Coeff-En:   0.000D+00 0.000D+00 0.000D+00 0.000D+00 0.000D+00 0.000D+00
 Coeff-En:   0.000D+00 0.000D+00 0.000D+00 0.000D+00 0.000D+00 0.100D+01
 Coeff:     -0.490D-02 0.705D-02 0.241D-04-0.188D-03 0.118D-01 0.168D-01
 Coeff:      0.477D-01-0.120D+00-0.519D+00-0.178D+00 0.573D+00 0.117D+01
 Gap=     0.155 Goal=   None    Shift=    0.000
 Gap=     0.134 Goal=   None    Shift=    0.000
 RMSDP=1.82D-05 MaxDP=3.08D-03 DE=-8.40D-04 OVMax= 3.61D-03

 Cycle  13  Pass 1  IDiag  1:
 RMSU=  9.13D-06    CP:  9.78D-01  2.29D-01  4.94D-01  2.70D-02  8.04D-01
                    CP:  7.29D-01  8.88D-01  9.12D-01  2.04D+00  1.89D+00
                    CP:  1.73D+00  1.34D+00
 E= -5368.79259071340     Delta-E=       -0.000312053531 Rises=F Damp=F
 DIIS: error= 1.96D-04 at cycle  13 NSaved=  13.
 NSaved=13 IEnMin=13 EnMin= -5368.79259071340     IErMin=13 ErrMin= 1.96D-04
 ErrMax= 1.96D-04  0.00D+00 EMaxC= 1.00D-01 BMatC= 3.03D-04 BMatP= 4.87D-03
 IDIUse=3 WtCom= 9.98D-01 WtEn= 1.96D-03
 Coeff-Com: -0.198D-02 0.256D-02-0.126D-02-0.844D-04 0.147D-01 0.284D-01
 Coeff-Com:  0.908D-01 0.570D-01-0.160D+00-0.339D+00-0.166D-01 0.617D+00
 Coeff-Com:  0.709D+00
 Coeff-En:   0.000D+00 0.000D+00 0.000D+00 0.000D+00 0.000D+00 0.000D+00
 Coeff-En:   0.000D+00 0.000D+00 0.000D+00 0.000D+00 0.000D+00 0.000D+00
 Coeff-En:   0.100D+01
 Coeff:     -0.197D-02 0.255D-02-0.126D-02-0.843D-04 0.146D-01 0.284D-01
 Coeff:      0.906D-01 0.569D-01-0.160D+00-0.338D+00-0.165D-01 0.615D+00
 Coeff:      0.710D+00
 Gap=     0.153 Goal=   None    Shift=    0.000
 Gap=     0.132 Goal=   None    Shift=    0.000
 RMSDP=8.88D-06 MaxDP=1.02D-03 DE=-3.12D-04 OVMax= 1.91D-03

 Cycle  14  Pass 1  IDiag  1:
 RMSU=  4.79D-06    CP:  9.77D-01  2.30D-01  4.94D-01  2.71D-02  8.07D-01
                    CP:  7.27D-01  8.73D-01  8.32D-01  1.92D+00  1.72D+00
                    CP:  1.66D+00  1.69D+00  8.97D-01
 E= -5368.79263359305     Delta-E=       -0.000042879652 Rises=F Damp=F
 DIIS: error= 6.82D-05 at cycle  14 NSaved=  14.
 NSaved=14 IEnMin=14 EnMin= -5368.79263359305     IErMin=14 ErrMin= 6.82D-05
 ErrMax= 6.82D-05  0.00D+00 EMaxC= 1.00D-01 BMatC= 4.71D-05 BMatP= 3.03D-04
 IDIUse=1 WtCom= 1.00D+00 WtEn= 0.00D+00
 Coeff-Com: -0.238D-03 0.247D-03-0.660D-03-0.104D-06 0.119D-02 0.338D-02
 Coeff-Com:  0.189D-01 0.580D-01 0.143D+00-0.482D-01-0.252D+00-0.175D+00
 Coeff-Com:  0.344D+00 0.907D+00
 Coeff:     -0.238D-03 0.247D-03-0.660D-03-0.104D-06 0.119D-02 0.338D-02
 Coeff:      0.189D-01 0.580D-01 0.143D+00-0.482D-01-0.252D+00-0.175D+00
 Coeff:      0.344D+00 0.907D+00
 Gap=     0.152 Goal=   None    Shift=    0.000
 Gap=     0.130 Goal=   None    Shift=    0.000
 RMSDP=7.53D-06 MaxDP=1.19D-03 DE=-4.29D-05 OVMax= 1.77D-03

 Cycle  15  Pass 1  IDiag  1:
 RMSU=  2.66D-06    CP:  9.77D-01  2.30D-01  4.94D-01  2.71D-02  8.09D-01
                    CP:  7.24D-01  8.58D-01  7.69D-01  1.76D+00  1.53D+00
                    CP:  1.60D+00  1.85D+00  1.25D+00  1.15D+00
 E= -5368.79264916094     Delta-E=       -0.000015567886 Rises=F Damp=F
 DIIS: error= 2.08D-05 at cycle  15 NSaved=  15.
 NSaved=15 IEnMin=15 EnMin= -5368.79264916094     IErMin=15 ErrMin= 2.08D-05
 ErrMax= 2.08D-05  0.00D+00 EMaxC= 1.00D-01 BMatC= 4.47D-06 BMatP= 4.71D-05
 IDIUse=1 WtCom= 1.00D+00 WtEn= 0.00D+00
 Coeff-Com: -0.186D-03 0.230D-03-0.101D-03 0.171D-05-0.128D-02-0.206D-02
 Coeff-Com: -0.623D-02 0.143D-01 0.870D-01 0.411D-01-0.105D+00-0.174D+00
 Coeff-Com:  0.792D-02 0.360D+00 0.778D+00
 Coeff:     -0.186D-03 0.230D-03-0.101D-03 0.171D-05-0.128D-02-0.206D-02
 Coeff:     -0.623D-02 0.143D-01 0.870D-01 0.411D-01-0.105D+00-0.174D+00
 Coeff:      0.792D-02 0.360D+00 0.778D+00
 Gap=     0.152 Goal=   None    Shift=    0.000
 Gap=     0.130 Goal=   None    Shift=    0.000
 RMSDP=2.85D-06 MaxDP=3.72D-04 DE=-1.56D-05 OVMax= 6.66D-04

 Cycle  16  Pass 1  IDiag  1:
 RMSU=  1.16D-06    CP:  9.77D-01  2.30D-01  4.94D-01  2.71D-02  8.09D-01
                    CP:  7.23D-01  8.51D-01  7.47D-01  1.71D+00  1.46D+00
                    CP:  1.51D+00  1.86D+00  1.33D+00  1.36D+00  1.04D+00
 E= -5368.79265095034     Delta-E=       -0.000001789396 Rises=F Damp=F
 DIIS: error= 2.33D-05 at cycle  16 NSaved=  16.
 NSaved=16 IEnMin=16 EnMin= -5368.79265095034     IErMin=15 ErrMin= 2.08D-05
 ErrMax= 2.33D-05  0.00D+00 EMaxC= 1.00D-01 BMatC= 2.93D-06 BMatP= 4.47D-06
 IDIUse=1 WtCom= 1.00D+00 WtEn= 0.00D+00
 Coeff-Com: -0.105D-03 0.116D-03 0.457D-04-0.874D-06-0.778D-03-0.148D-02
 Coeff-Com: -0.549D-02-0.197D-03 0.202D-01 0.220D-01-0.169D-01-0.538D-01
 Coeff-Com: -0.408D-01 0.485D-01 0.355D+00 0.673D+00
 Coeff:     -0.105D-03 0.116D-03 0.457D-04-0.874D-06-0.778D-03-0.148D-02
 Coeff:     -0.549D-02-0.197D-03 0.202D-01 0.220D-01-0.169D-01-0.538D-01
 Coeff:     -0.408D-01 0.485D-01 0.355D+00 0.673D+00
 Gap=     0.152 Goal=   None    Shift=    0.000
 Gap=     0.130 Goal=   None    Shift=    0.000
 RMSDP=7.87D-07 MaxDP=8.93D-05 DE=-1.79D-06 OVMax= 1.88D-04

 Cycle  17  Pass 1  IDiag  1:
 RMSU=  4.77D-07    CP:  9.77D-01  2.30D-01  4.94D-01  2.71D-02  8.09D-01
                    CP:  7.23D-01  8.51D-01  7.45D-01  1.70D+00  1.45D+00
                    CP:  1.50D+00  1.87D+00  1.35D+00  1.41D+00  1.21D+00
                    CP:  9.38D-01
 E= -5368.79265128805     Delta-E=       -0.000000337712 Rises=F Damp=F
 DIIS: error= 9.71D-06 at cycle  17 NSaved=  17.
 NSaved=17 IEnMin=17 EnMin= -5368.79265128805     IErMin=17 ErrMin= 9.71D-06
 ErrMax= 9.71D-06  0.00D+00 EMaxC= 1.00D-01 BMatC= 5.58D-07 BMatP= 2.93D-06
 IDIUse=1 WtCom= 1.00D+00 WtEn= 0.00D+00
 Coeff-Com: -0.154D-04 0.169D-04 0.552D-04-0.104D-05-0.257D-03-0.536D-03
 Coeff-Com: -0.153D-02-0.208D-02-0.742D-02 0.656D-03 0.117D-01 0.989D-02
 Coeff-Com: -0.227D-01-0.538D-01-0.499D-02 0.312D+00 0.759D+00
 Coeff:     -0.154D-04 0.169D-04 0.552D-04-0.104D-05-0.257D-03-0.536D-03
 Coeff:     -0.153D-02-0.208D-02-0.742D-02 0.656D-03 0.117D-01 0.989D-02
 Coeff:     -0.227D-01-0.538D-01-0.499D-02 0.312D+00 0.759D+00
 Gap=     0.152 Goal=   None    Shift=    0.000
 Gap=     0.130 Goal=   None    Shift=    0.000
 RMSDP=5.23D-07 MaxDP=6.65D-05 DE=-3.38D-07 OVMax= 1.23D-04

 Cycle  18  Pass 1  IDiag  1:
 RMSU=  2.49D-07    CP:  9.77D-01  2.30D-01  4.94D-01  2.72D-02  8.09D-01
                    CP:  7.23D-01  8.50D-01  7.45D-01  1.70D+00  1.44D+00
                    CP:  1.50D+00  1.87D+00  1.36D+00  1.44D+00  1.29D+00
                    CP:  1.17D+00  1.05D+00
 E= -5368.79265139186     Delta-E=       -0.000000103808 Rises=F Damp=F
 DIIS: error= 3.16D-06 at cycle  18 NSaved=  18.
 NSaved=18 IEnMin=18 EnMin= -5368.79265139186     IErMin=18 ErrMin= 3.16D-06
 ErrMax= 3.16D-06  0.00D+00 EMaxC= 1.00D-01 BMatC= 3.80D-08 BMatP= 5.58D-07
 IDIUse=1 WtCom= 1.00D+00 WtEn= 0.00D+00
 Coeff-Com:  0.125D-04-0.849D-05 0.168D-04-0.336D-06 0.365D-04 0.569D-04
 Coeff-Com:  0.492D-03-0.116D-02-0.861D-02-0.480D-02 0.970D-02 0.189D-01
 Coeff-Com: -0.193D-02-0.382D-01-0.856D-01-0.529D-02 0.374D+00 0.742D+00
 Coeff:      0.125D-04-0.849D-05 0.168D-04-0.336D-06 0.365D-04 0.569D-04
 Coeff:      0.492D-03-0.116D-02-0.861D-02-0.480D-02 0.970D-02 0.189D-01
 Coeff:     -0.193D-02-0.382D-01-0.856D-01-0.529D-02 0.374D+00 0.742D+00
 Gap=     0.152 Goal=   None    Shift=    0.000
 Gap=     0.130 Goal=   None    Shift=    0.000
 RMSDP=2.40D-07 MaxDP=3.35D-05 DE=-1.04D-07 OVMax= 6.94D-05

 Cycle  19  Pass 1  IDiag  1:
 RMSU=  1.15D-07    CP:  9.77D-01  2.30D-01  4.94D-01  2.72D-02  8.09D-01
                    CP:  7.23D-01  8.51D-01  7.44D-01  1.70D+00  1.44D+00
                    CP:  1.49D+00  1.87D+00  1.36D+00  1.45D+00  1.33D+00
                    CP:  1.26D+00  1.31D+00  1.04D+00
 E= -5368.79265141269     Delta-E=       -0.000000020833 Rises=F Damp=F
 DIIS: error= 1.64D-06 at cycle  19 NSaved=  19.
 NSaved=19 IEnMin=19 EnMin= -5368.79265141269     IErMin=19 ErrMin= 1.64D-06
 ErrMax= 1.64D-06  0.00D+00 EMaxC= 1.00D-01 BMatC= 1.66D-08 BMatP= 3.80D-08
 IDIUse=1 WtCom= 1.00D+00 WtEn= 0.00D+00
 Coeff-Com:  0.940D-05-0.787D-05-0.664D-05 0.106D-06 0.728D-04 0.136D-03
 Coeff-Com:  0.531D-03-0.260D-03-0.186D-02-0.177D-02 0.148D-02 0.608D-02
 Coeff-Com:  0.322D-02-0.485D-02-0.317D-01-0.634D-01-0.326D-02 0.305D+00
 Coeff-Com:  0.791D+00
 Coeff:      0.940D-05-0.787D-05-0.664D-05 0.106D-06 0.728D-04 0.136D-03
 Coeff:      0.531D-03-0.260D-03-0.186D-02-0.177D-02 0.148D-02 0.608D-02
 Coeff:      0.322D-02-0.485D-02-0.317D-01-0.634D-01-0.326D-02 0.305D+00
 Coeff:      0.791D+00
 Gap=     0.152 Goal=   None    Shift=    0.000
 Gap=     0.130 Goal=   None    Shift=    0.000
 RMSDP=1.14D-07 MaxDP=1.70D-05 DE=-2.08D-08 OVMax= 3.47D-05

 Cycle  20  Pass 1  IDiag  1:
 RMSU=  5.82D-08    CP:  9.77D-01  2.30D-01  4.94D-01  2.72D-02  8.09D-01
                    CP:  7.23D-01  8.51D-01  7.44D-01  1.70D+00  1.44D+00
                    CP:  1.49D+00  1.87D+00  1.36D+00  1.45D+00  1.34D+00
                    CP:  1.29D+00  1.42D+00  1.27D+00  1.12D+00
 E= -5368.79265141794     Delta-E=       -0.000000005251 Rises=F Damp=F
 DIIS: error= 7.69D-07 at cycle  20 NSaved=  20.
 NSaved=20 IEnMin=20 EnMin= -5368.79265141794     IErMin=20 ErrMin= 7.69D-07
 ErrMax= 7.69D-07  0.00D+00 EMaxC= 1.00D-01 BMatC= 3.95D-09 BMatP= 1.66D-08
 IDIUse=1 WtCom= 1.00D+00 WtEn= 0.00D+00
 Coeff-Com:  0.130D-05-0.162D-05-0.849D-05 0.112D-06 0.363D-04 0.640D-04
 Coeff-Com:  0.192D-03 0.155D-03 0.131D-02 0.379D-03-0.176D-02-0.164D-02
 Coeff-Com:  0.163D-02 0.686D-02 0.560D-02-0.288D-01-0.931D-01-0.323D-01
 Coeff-Com:  0.392D+00 0.750D+00
 Coeff:      0.130D-05-0.162D-05-0.849D-05 0.112D-06 0.363D-04 0.640D-04
 Coeff:      0.192D-03 0.155D-03 0.131D-02 0.379D-03-0.176D-02-0.164D-02
 Coeff:      0.163D-02 0.686D-02 0.560D-02-0.288D-01-0.931D-01-0.323D-01
 Coeff:      0.392D+00 0.750D+00
 Gap=     0.152 Goal=   None    Shift=    0.000
 Gap=     0.130 Goal=   None    Shift=    0.000
 RMSDP=6.34D-08 MaxDP=9.11D-06 DE=-5.25D-09 OVMax= 1.99D-05

 Cycle  21  Pass 1  IDiag  1:
 Restarting incremental Fock formation.
 E= -5368.79265141936     Delta-E=       -0.000000001417 Rises=F Damp=F
 DIIS: error= 3.42D-07 at cycle  21 NSaved=  20.
 NSaved=20 IEnMin=20 EnMin= -5368.79265141936     IErMin=20 ErrMin= 3.42D-07
 ErrMax= 3.42D-07  0.00D+00 EMaxC= 1.00D-01 BMatC= 5.51D-10 BMatP= 3.95D-09
 IDIUse=1 WtCom= 1.00D+00 WtEn= 0.00D+00
 Coeff-Com: -0.229D-05 0.151D-05-0.249D-05 0.765D-05 0.679D-05-0.115D-04
 Coeff-Com:  0.883D-04 0.891D-03 0.622D-03-0.106D-02-0.203D-02-0.417D-04
 Coeff-Com:  0.452D-02 0.948D-02 0.904D-03-0.419D-01-0.906D-01-0.125D-01
 Coeff-Com:  0.377D+00 0.755D+00
 Coeff:     -0.229D-05 0.151D-05-0.249D-05 0.765D-05 0.679D-05-0.115D-04
 Coeff:      0.883D-04 0.891D-03 0.622D-03-0.106D-02-0.203D-02-0.417D-04
 Coeff:      0.452D-02 0.948D-02 0.904D-03-0.419D-01-0.906D-01-0.125D-01
 Coeff:      0.377D+00 0.755D+00
 Gap=     0.152 Goal=   None    Shift=    0.000
 Gap=     0.130 Goal=   None    Shift=    0.000
 RMSDP=3.32D-08 MaxDP=3.96D-06 DE=-1.42D-09 OVMax= 9.60D-06

 Cycle  22  Pass 1  IDiag  1:
 RMSU=  3.32D-08    CP:  1.00D+00
 E= -5368.79265141966     Delta-E=       -0.000000000300 Rises=F Damp=F
 DIIS: error= 2.40D-07 at cycle  22 NSaved=  20.
 NSaved=20 IEnMin=20 EnMin= -5368.79265141966     IErMin=20 ErrMin= 2.40D-07
 ErrMax= 2.40D-07  0.00D+00 EMaxC= 1.00D-01 BMatC= 2.88D-10 BMatP= 5.51D-10
 IDIUse=1 WtCom= 1.00D+00 WtEn= 0.00D+00
 Coeff-Com: -0.454D-06 0.163D-05-0.673D-05-0.169D-04-0.545D-04-0.214D-04
 Coeff-Com:  0.486D-04 0.209D-03-0.669D-04-0.500D-03-0.426D-03 0.428D-03
 Coeff-Com:  0.226D-02 0.619D-02 0.489D-02-0.279D-01-0.925D-01-0.104D-01
 Coeff-Com:  0.300D+00 0.818D+00
 Coeff:     -0.454D-06 0.163D-05-0.673D-05-0.169D-04-0.545D-04-0.214D-04
 Coeff:      0.486D-04 0.209D-03-0.669D-04-0.500D-03-0.426D-03 0.428D-03
 Coeff:      0.226D-02 0.619D-02 0.489D-02-0.279D-01-0.925D-01-0.104D-01
 Coeff:      0.300D+00 0.818D+00
 Gap=     0.152 Goal=   None    Shift=    0.000
 Gap=     0.130 Goal=   None    Shift=    0.000
 RMSDP=1.75D-08 MaxDP=1.73D-06 DE=-3.00D-10 OVMax= 6.50D-06

 Cycle  23  Pass 1  IDiag  1:
 RMSU=  1.28D-08    CP:  1.00D+00  1.36D+00
 E= -5368.79265141991     Delta-E=       -0.000000000251 Rises=F Damp=F
 DIIS: error= 1.55D-07 at cycle  23 NSaved=  20.
 NSaved=20 IEnMin=20 EnMin= -5368.79265141991     IErMin=20 ErrMin= 1.55D-07
 ErrMax= 1.55D-07  0.00D+00 EMaxC= 1.00D-01 BMatC= 4.47D-11 BMatP= 2.88D-10
 IDIUse=1 WtCom= 1.00D+00 WtEn= 0.00D+00
 Coeff-Com:  0.123D-05-0.736D-05-0.120D-04-0.242D-04-0.320D-04-0.184D-03
 Coeff-Com: -0.442D-04 0.218D-03 0.283D-03-0.192D-03-0.997D-03-0.149D-02
 Coeff-Com:  0.266D-02 0.141D-01 0.124D-01-0.426D-01-0.116D+00-0.713D-01
 Coeff-Com:  0.402D+00 0.802D+00
 Coeff:      0.123D-05-0.736D-05-0.120D-04-0.242D-04-0.320D-04-0.184D-03
 Coeff:     -0.442D-04 0.218D-03 0.283D-03-0.192D-03-0.997D-03-0.149D-02
 Coeff:      0.266D-02 0.141D-01 0.124D-01-0.426D-01-0.116D+00-0.713D-01
 Coeff:      0.402D+00 0.802D+00
 Gap=     0.152 Goal=   None    Shift=    0.000
 Gap=     0.130 Goal=   None    Shift=    0.000
 RMSDP=1.16D-08 MaxDP=1.22D-06 DE=-2.51D-10 OVMax= 5.02D-06

 Cycle  24  Pass 1  IDiag  1:
 RMSU=  7.00D-09    CP:  1.00D+00  1.60D+00  1.36D+00
 E= -5368.79265141995     Delta-E=       -0.000000000045 Rises=F Damp=F
 DIIS: error= 9.06D-08 at cycle  24 NSaved=  20.
 NSaved=20 IEnMin=20 EnMin= -5368.79265141995     IErMin=20 ErrMin= 9.06D-08
 ErrMax= 9.06D-08  0.00D+00 EMaxC= 1.00D-01 BMatC= 1.45D-11 BMatP= 4.47D-11
 IDIUse=1 WtCom= 1.00D+00 WtEn= 0.00D+00
 Coeff-Com: -0.158D-05-0.127D-06 0.403D-05-0.631D-05-0.106D-03-0.990D-04
 Coeff-Com:  0.132D-03 0.307D-03 0.359D-04-0.676D-03-0.130D-02-0.171D-03
 Coeff-Com:  0.582D-02 0.148D-01 0.794D-02-0.567D-01-0.140D+00-0.960D-01
 Coeff-Com:  0.349D+00 0.917D+00
 Coeff:     -0.158D-05-0.127D-06 0.403D-05-0.631D-05-0.106D-03-0.990D-04
 Coeff:      0.132D-03 0.307D-03 0.359D-04-0.676D-03-0.130D-02-0.171D-03
 Coeff:      0.582D-02 0.148D-01 0.794D-02-0.567D-01-0.140D+00-0.960D-01
 Coeff:      0.349D+00 0.917D+00
 Gap=     0.152 Goal=   None    Shift=    0.000
 Gap=     0.130 Goal=   None    Shift=    0.000
 RMSDP=9.12D-09 MaxDP=9.68D-07 DE=-4.55D-11 OVMax= 4.10D-06

 Error on total polarization charges =  0.02943
 SCF Done:  E(UMN15) =  -5368.79265142     A.U. after   24 cycles
            NFock= 24  Conv=0.91D-08     -V/T= 2.0908
 <Sx>= 0.0000 <Sy>= 0.0000 <Sz>= 0.5000 <S**2>= 0.7552 S= 0.5026
 <L.S>=  0.00000000000    
 KE= 4.921955504830D+03 PE=-3.579409890812D+04 EE= 1.399534864626D+04
 SMD-CDS (non-electrostatic) energy       (kcal/mol) =       4.57
 (included in total energy above)
 Annihilation of the first spin contaminant:
 S**2 before annihilation     0.7552,   after     0.7500
 Leave Link  502 at Tue May  6 03:02:04 2025, MaxMem= 82678120448 cpu:           43985.4 elap:            2583.1
 (Enter /sysapps/ubuntu-applications/gaussian-new/avx/g16/l801.exe)
 DoSCS=F DFT=T ScalE2(SS,OS)=  1.000000  1.000000
 Range of M.O.s used for correlation:     1   916
 NBasis=   916 NAE=   230 NBE=   229 NFC=     0 NFV=     0
 NROrb=    916 NOA=   230 NOB=   229 NVA=   686 NVB=   687

 **** Warning!!: The largest alpha MO coefficient is  0.13615660D+02


 **** Warning!!: The largest beta MO coefficient is  0.13891338D+02

 Leave Link  801 at Tue May  6 03:02:05 2025, MaxMem= 82678120448 cpu:               6.2 elap:               0.4
 (Enter /sysapps/ubuntu-applications/gaussian-new/avx/g16/l1101.exe)
 Using compressed storage, NAtomX=    69.
 Will process     70 centers per pass.
   1 Symmetry operations used in ECPInt.
 ECPInt:  NShTT=   77815 NPrTT=  297642 LenC2=   60431 LenP2D=  140490.
 LDataN:  DoStor=T MaxTD1=10 Len=  848
 Leave Link 1101 at Tue May  6 03:03:24 2025, MaxMem= 82678120448 cpu:            1656.1 elap:              78.8
 (Enter /sysapps/ubuntu-applications/gaussian-new/avx/g16/l1102.exe)
 Symmetrizing basis deriv contribution to polar:
 IMax=3 JMax=2 DiffMx= 0.00D+00
 Leave Link 1102 at Tue May  6 03:03:26 2025, MaxMem= 82678120448 cpu:              15.8 elap:               1.1
 (Enter /sysapps/ubuntu-applications/gaussian-new/avx/g16/l1110.exe)
 Forming Gx(P) for the SCF density, NAtomX=    69.
 Integral derivatives from FoFJK, PRISM(SPDF).
 Do as many integral derivatives as possible in FoFJK.
 G2DrvN: MDV=   82678114930.
 G2DrvN: will do    70 centers at a time, making    1 passes.
 Calling FoFCou, ICntrl=  3107 FMM=T I1Cent=   0 AccDes= 0.00D+00.
 FoFJK:  IHMeth= 1 ICntrl=    3107 DoSepK=F KAlg= 0 I1Cent=           0 FoldK=F
 IRaf=         0 NMat=       1 IRICut=       1 DoRegI=T DoRafI=F ISym2E= 0 IDoP0=0 IntGTp=1.
 FoFCou: FMM=T IPFlag=           0 FMFlag=      100000 FMFlg1=        2001
         NFxFlg=           0 DoJE=F BraDBF=F KetDBF=F FulRan=T
         wScrn=  0.000000 ICntrl=      3107 IOpCl=  1 I1Cent=           0 NGrid=           0
         NMat0=    1 NMatS0=      1 NMatT0=    0 NMatD0=    1 NMtDS0=    0 NMtDT0=    0
 Symmetry not used in FoFCou.
 FMM levels:  10  Number of levels for PrismC:   9
 Defaulting to unpruned grid for atomic number  70.
 Defaulting to unpruned grid for atomic number  70.
 Defaulting to unpruned grid for atomic number  70.
 Defaulting to unpruned grid for atomic number  70.
 Defaulting to unpruned grid for atomic number  70.
 Defaulting to unpruned grid for atomic number  70.
 Defaulting to unpruned grid for atomic number  70.
 Defaulting to unpruned grid for atomic number  70.
 Defaulting to unpruned grid for atomic number  70.
 Defaulting to unpruned grid for atomic number  70.
 Defaulting to unpruned grid for atomic number  70.
 Defaulting to unpruned grid for atomic number  70.
 Defaulting to unpruned grid for atomic number  70.
 Defaulting to unpruned grid for atomic number  70.
 Defaulting to unpruned grid for atomic number  70.
 Defaulting to unpruned grid for atomic number  70.
 Defaulting to unpruned grid for atomic number  70.
 Defaulting to unpruned grid for atomic number  70.
 Defaulting to unpruned grid for atomic number  70.
 Defaulting to unpruned grid for atomic number  70.
 Defaulting to unpruned grid for atomic number  70.
 Defaulting to unpruned grid for atomic number  70.
 Defaulting to unpruned grid for atomic number  70.
 Defaulting to unpruned grid for atomic number  70.
 NEqPCM:  Using equilibrium solvation (IEInf=0, Eps=  10.1250, EpsInf=   2.0874)
 G2PCM: DoFxE=T DoFxN=T DoGrad=T DoDP/DQ/DG/TGxP=FFFF NFrqRd=   0 IEInf=0 SqF1=F DoCFld=F IF1Alg=4.
 GePol: Maximum number of non-zero 1st derivatives   =     260
 End of G2Drv F.D. properties file   721 does not exist.
 End of G2Drv F.D. properties file   722 does not exist.
 End of G2Drv F.D. properties file   788 does not exist.
 Leave Link 1110 at Tue May  6 04:31:07 2025, MaxMem= 82678120448 cpu:           96409.5 elap:            5260.9
 (Enter /sysapps/ubuntu-applications/gaussian-new/avx/g16/l1002.exe)
 Minotr:  UHF open shell wavefunction.
          IDoAtm=11111111111111111111111111111111111111111111111111
          IDoAtm=1111111111111111111
 NEqPCM:  Using equilibrium solvation (IEInf=0, Eps=  10.1250, EpsInf=   2.0874)
          Direct CPHF calculation.
          Differentiating once with respect to electric field.
                with respect to dipole field.
          Differentiating once with respect to nuclear coordinates.
          Requested convergence is 1.0D-08 RMS, and 1.0D-07 maximum.
          Secondary convergence is 1.0D-12 RMS, and 1.0D-12 maximum.
          NewPWx=T KeepS1=F KeepF1=F KeepIn=T MapXYZ=F SortEE=F KeepMc=T.
 Defaulting to unpruned grid for atomic number  70.
        21431 words used for storage of precomputed grid.
 Two-electron integrals replicated using symmetry.
          MDV=   82678120448 using IRadAn=       1.
          Solving linear equations simultaneously, MaxMat=      72.
 FoF2E skips out because all densities are zero.
 CalDSu exits because no D1Ps are significant.
 FoFJK:  IHMeth= 1 ICntrl=       0 DoSepK=F KAlg= 0 I1Cent=           0 FoldK=F
 IRaf= 830000000 NMat=      72 IRICut=       1 DoRegI=T DoRafI=F ISym2E= 2 IDoP0=3 IntGTp=3.
 Defaulting to unpruned grid for atomic number  70.
 Defaulting to unpruned grid for atomic number  70.
 Defaulting to unpruned grid for atomic number  70.
 Defaulting to unpruned grid for atomic number  70.
 Defaulting to unpruned grid for atomic number  70.
 Defaulting to unpruned grid for atomic number  70.
 Defaulting to unpruned grid for atomic number  70.
 Defaulting to unpruned grid for atomic number  70.
 Defaulting to unpruned grid for atomic number  70.
 Defaulting to unpruned grid for atomic number  70.
 Defaulting to unpruned grid for atomic number  70.
 Defaulting to unpruned grid for atomic number  70.
 Defaulting to unpruned grid for atomic number  70.
 Defaulting to unpruned grid for atomic number  70.
 Defaulting to unpruned grid for atomic number  70.
 Defaulting to unpruned grid for atomic number  70.
 Defaulting to unpruned grid for atomic number  70.
 Defaulting to unpruned grid for atomic number  70.
 Defaulting to unpruned grid for atomic number  70.
 Defaulting to unpruned grid for atomic number  70.
 Defaulting to unpruned grid for atomic number  70.
 Defaulting to unpruned grid for atomic number  70.
 Defaulting to unpruned grid for atomic number  70.
 Defaulting to unpruned grid for atomic number  70.
          There are   210 degrees of freedom in the 1st order CPHF.  IDoFFX=6 NUNeed=     3.
    210 vectors produced by pass  0 Test12= 3.15D-13 1.00D-09 XBig12= 4.46D+02 4.67D+00.
 AX will form    72 AO Fock derivatives at one time.
    207 vectors produced by pass  1 Test12= 3.15D-13 1.00D-09 XBig12= 9.19D+01 7.33D-01.
    207 vectors produced by pass  2 Test12= 3.15D-13 1.00D-09 XBig12= 4.12D+00 3.26D-01.
    207 vectors produced by pass  3 Test12= 3.15D-13 1.00D-09 XBig12= 1.05D-01 3.26D-02.
    207 vectors produced by pass  4 Test12= 3.15D-13 1.00D-09 XBig12= 1.32D-03 2.52D-03.
    207 vectors produced by pass  5 Test12= 3.15D-13 1.00D-09 XBig12= 1.27D-05 2.73D-04.
    205 vectors produced by pass  6 Test12= 3.15D-13 1.00D-09 XBig12= 1.55D-07 2.57D-05.
    115 vectors produced by pass  7 Test12= 3.15D-13 1.00D-09 XBig12= 1.51D-09 2.73D-06.
     35 vectors produced by pass  8 Test12= 3.15D-13 1.00D-09 XBig12= 1.44D-11 3.20D-07.
      3 vectors produced by pass  9 Test12= 3.15D-13 1.00D-09 XBig12= 2.07D-13 3.34D-08.
      3 vectors produced by pass 10 Test12= 3.15D-13 1.00D-09 XBig12= 8.38D-15 5.10D-09.
      1 vectors produced by pass 11 Test12= 3.15D-13 1.00D-09 XBig12= 2.01D-15 1.67D-09.
 InvSVY:  IOpt=1 It=  1 EMax= 1.07D-14
 Solved reduced A of dimension  1607 with   210 vectors.
[...]
 663,0.00007750,-0.00141525,-0.01170333,-0.01023626,-0.00015776,-0.0005
 9762,-0.00040606,0.01494449,-0.30017189,-0.11733316,-0.00106190,0.0000
 0605,0.00098559,-0.00144194,0.00048562,0.00093278,-0.01840709,0.310895
 42,0.00001225,0.00004234,-0.00002005,0.00001134,0.00003183,-0.00002034
 ,0.00005153,0.00001885,0.00003764,-0.00003157,0.00000140,-0.00000502,-
 0.00002286,-0.00000863,0.00001186,-0.00000669,-0.00000423,-0.00001255,
 -0.00001347,-0.00000871,-0.00002892,-0.00000872,0.00001402,0.00001555,
 0.00001265,0.00000311,0.00001472,-0.00000194,0.00000825,-0.00000267,0.
 00000151,-0.00000246,-0.00000086,0.00002281,0.00000700,-0.00000745,-0.
 00000054,-0.00000040,-0.00000182,-0.00000121,-0.00000011,-0.00000118,-
 0.00000172,0.00000008,-0.00000140,-0.00000895,-0.00000140,-0.00000499,
 -0.00000661,-0.00000705,0.00000135,-0.00000691,0.00001099,-0.00000396,
 0.00001967,-0.00002512,0.00000786,0.00001291,0.00000205,0.00000980,0.0
 0001468,0.00001646,-0.00000545,-0.00000620,0.00001283,-0.00000829,-0.0
 0001143,0.00001588,-0.00000409,-0.00000677,-0.00000071,-0.00000289,-0.
 00000341,-0.00000108,-0.00000346,-0.00000716,-0.00001146,0.00000630,-0
 .00000746,-0.00000943,-0.00000150,0.00000621,0.00001315,0.00000098,0.0
 0000602,0.00000055,0.00000137,0.00001122,-0.00012628,0.00013322,0.0000
 0047,-0.00000578,-0.00000028,-0.00000471,-0.00000426,-0.00000220,-0.00
 000287,-0.00000397,0.00000255,-0.00000131,-0.00000023,-0.00000049,-0.0
 0000173,-0.00000131,-0.00000002,-0.00000359,0.00000096,-0.00000156,-0.
 00014788,0.00002040,-0.00001739,-0.00001481,0.00001302,-0.00002368,0.0
 0002428,0.00006171,-0.00007233,0.00042472,0.00023996,-0.00041309,-0.00
 004414,-0.00005191,-0.00002282,-0.00000741,-0.00002197,-0.00001657,0.0
 0001361,-0.00000146,0.00001122,0.00000103,0.00000262,0.00000410,0.0000
 0010,0.00000025,0.00001071,0.00000180,-0.00000060,-0.00000262,-0.00000
 042,0.00000140,0.00000028,-0.00000283,0.00000323,0.00000004,0.00000102
 ,0.00000142,-0.00000025,-0.00002193,0.00002720,0.00001616,-0.00000110,
 -0.00000576,-0.00000861,-0.00000140,-0.00002253,-0.00001299,-0.0000023
 4,0.00002774,-0.00000578,0.00000468,0.00000681,-0.00000294,0.00000155,
 0.00000388,0.00000081,-0.00005822,0.00001181,-0.00005963,0.00001200,0.
 00054003,-0.00052693,-0.00579168,-0.00158916,-0.00015529,-0.00435719,0
 .00052390,0.00273522,0.00139382,-0.02136620,-0.00398286,0.00016673,-0.
 00092683,-0.00039009,-0.00218784,0.01091094,0.00867690,0.00003602,0.00
 048393,0.00011987,-0.00095748,-0.11725230,-0.10332034,0.00254229,0.001
 32761,-0.00074002,0.00247692,0.00056956,-0.00136117,0.00636283,0.12647
 036,0.09934822,-0.00384105,0.00120389,0.00083591,-0.02505164,0.0093767
 4,0.00346532,-0.00849356,0.00479920,0.01231855,-0.00653686,0.00036111,
 0.00798109,-0.01042087,-0.00559220,-0.00522009,0.01033215,-0.00272124,
 0.00598730,0.00070407,-0.00262346,-0.00761205,-0.00077588,-0.00137815,
 -0.00344405,0.00192555,0.00044896,0.00197666,0.00033711,0.00001131,0.0
 0021513,-0.00014006,0.00032490,0.00006507,-0.00014888,0.00009088,0.000
 19283,-0.00012043,-0.00006878,-0.00023765,-0.00031704,-0.00001624,-0.0
 0021876,0.00012264,-0.00007060,-0.00030379,-0.00340761,0.00014174,-0.0
 0055278,-0.00950588,0.00564677,-0.00436048,-0.00579837,-0.00166105,0.0
 0177200,0.00210254,0.00027865,-0.00135688,-0.00871066,-0.02023742,-0.0
 1727168,-0.00281933,0.00943404,-0.00881173,-0.00538865,0.00458165,0.00
 142649,-0.00144729,0.00153099,0.00043124,-0.00420610,0.00854161,-0.002
 26408,0.00061920,0.00428209,0.00580260,0.00060132,-0.00487951,0.003078
 76,0.00071487,-0.00104225,0.00202692,0.00272335,0.00264873,0.00006285,
 -0.00580560,-0.00183800,-0.00077628,0.00082048,-0.00245713,0.00009481,
 -0.00008534,-0.00145976,0.00000427,-0.00135598,-0.00070556,-0.00056631
 ,-0.00094585,-0.00092680,0.00095078,0.00135153,0.00091820,0.00086479,0
 .00212457,0.00238405,-0.00029642,0.00232668,-0.00016543,0.00072701,-0.
 00082017,0.00129377,-0.00007950,-0.00008667,0.00061403,0.00039914,-0.0
 0011111,0.00032775,-0.00020455,-0.00293248,-0.00056736,-0.00004149,-0.
 00011739,0.00011805,0.00036772,-0.00004317,-0.00016374,0.00003354,-0.0
 0012690,0.00015596,0.00011819,-0.00007735,0.00001380,0.00023064,-0.000
 27682,0.00008205,-0.00016432,-0.00007398,0.00008865,-0.00016666,-0.000
 09848,0.00021056,-0.00001625,-0.00000416,-0.00000392,-0.00002190,-0.00
 001987,0.00002501,-0.00007134,0.00011614,0.00005797,-0.00002618,0.0000
 3535,-0.00008135,-0.00007141,0.00005021,-0.00009320,-0.00010738,-0.000
 01356,-0.00008438,0.00003548,-0.00018829,0.00046591,-0.00007032,0.0000
 1060,0.00023147,0.00008857,0.00041784,0.00010807,0.00000632,0.00020723
 ,0.00006657,-0.00008687,0.00026155,0.00010854,-0.00000400,-0.00004305,
 0.00039903,-0.00003747,0.00025878,-0.00007539,-0.00000033,0.00003278,-
 0.00012448,0.00019233,0.00006064,-0.00021591,-0.00003128,-0.00009394,-
 0.00003606,0.00000401,-0.00014278,0.00002691,-0.00013941,-0.00004727,-
 0.00000888,0.00003463,0.00001897,0.00002285,0.00004278,-0.00000384,0.0
 0003689,0.00003055,0.07656616,0.00068451,-0.00064838,-0.00079285,-0.00
 065578,0.00318529,0.00128441,0.00535096,-0.00101276,-0.00392213,-0.000
 58964,-0.00454826,-0.00345910,-0.00145754,-0.00517214,-0.00072683,0.00
 143874,-0.00056337,-0.00019196,-0.00064375,0.00146377,0.00211967,0.000
 02546,0.00028281,-0.00008260,-0.00041660,0.00010335,-0.00073543,-0.000
 01732,-0.00006625,0.00001758,0.00014776,0.00033952,0.00020126,-0.00017
 362,-0.00005908,-0.00003054,-0.00004522,-0.00002643,0.00010552,0.00012
 554,-0.00004367,0.00006150,0.00023024,-0.00014727,-0.00009949,0.006387
 07,-0.01993559,-0.00099390,-0.00039922,-0.01414974,0.01261413,-0.00066
 033,-0.00265580,0.00639980,0.00471421,-0.04540626,-0.00750841,-0.01985
 507,0.00892324,-0.02516870,0.01702123,-0.01645432,0.00852827,0.0060690
 6,0.00239505,-0.00353429,-0.00360889,0.00892715,0.00081501,0.00516731,
 -0.01303958,0.00252913,0.00240796,-0.00080387,0.00569101,-0.00564799,0
 .00423758,-0.00097863,-0.00532779,0.00205607,-0.00363915,-0.00180411,-
 0.00475352,0.00207859,-0.00430984,-0.00210947,0.00216878,-0.00883583,-
 0.00457529,-0.00143199,-0.00061189,0.00299367,-0.00011726,0.00022217,0
 .00136086,-0.00049742,0.00095147,0.00122899,-0.00156061,0.00124189,0.0
 0000706,-0.00069885,0.00090998,0.00069668,-0.00028020,0.00343749,-0.00
 042863,0.00063689,0.00297064,0.00029194,0.00058550,0.00241635,0.003102
 35,0.00266052,0.00311625,0.00272223,-0.00143847,0.00046489,0.00032552,
 0.00006154,0.00007752,0.00003414,-0.00019772,-0.00000179,0.00005574,-0
 .00000493,0.00003454,-0.00001987,-0.00000020,0.00039085,0.00014199,-0.
 00010026,0.00014290,0.00005661,0.00007049,0.00003960,-0.00007201,-0.00
 000880,0.00023041,-0.00027490,0.00000645,-0.00001042,-0.00000142,0.000
 01342,0.00006813,-0.00001598,0.00009155,-0.00002767,-0.00003739,0.0000
 0387,-0.00002575,-0.00000417,0.00001185,-0.00000082,-0.00001845,0.0001
 5117,-0.00016999,-0.00015604,-0.00008462,0.00017733,0.00001226,0.00001
 852,0.00007029,-0.00005566,-0.00006880,-0.00005876,-0.00004944,-0.0000
 0547,-0.00005219,0.00005595,0.00002848,0.00005466,-0.00002399,-0.00000
 273,0.00003143,-0.00006711,0.00004293,-0.00000037,0.00004359,-0.000049
 36,-0.00003307,0.00005417,0.00001564,-0.00001315,-0.00000988,-0.000018
 41,0.00002136,0.00001751,0.00000708,0.00002599,-0.00003778,-0.00006650
 ,-0.00006836,-0.00007687,0.00009793,-0.00000214,-0.00000618,0.00000400
 ,-0.00003829,-0.00002178,-0.00000073,-0.01026732,0.09236511,0.00051564
 ,-0.00153442,-0.00223621,-0.00150164,0.00176057,0.00541777,0.01883117,
 -0.00612660,-0.01101300,0.00259885,-0.00257391,-0.01809748,0.00006129,
 -0.00063084,-0.00516742,-0.00002710,-0.00037078,-0.00127992,-0.0031819
 9,0.00311253,0.00868042,-0.00016318,0.00005268,0.00038636,-0.00169397,
 -0.00023840,-0.00231004,0.00005456,-0.00000923,-0.00010189,-0.00019504
 ,-0.00007141,-0.00024533,-0.00006994,-0.00004012,-0.00004702,-0.000109
 38,0.00002139,0.00029316,0.00043385,0.00011956,0.00004919,0.00043459,-
 0.00041442,-0.00006823,0.00167554,-0.00455502,-0.01088620,0.00068357,0
 .00815600,-0.01350292,0.00121556,0.00115894,-0.01391398,-0.00192642,-0
 .00605690,0.02459870,-0.01443543,-0.02256995,-0.01113639,-0.01594874,0
 .01420974,0.00519308,0.00052870,-0.00120815,-0.01289130,0.00025785,0.0
 0100725,-0.00379390,-0.00081263,0.00569953,-0.00344837,0.00128373,0.00
 391643,0.00351651,0.00312667,-0.00153508,-0.00589404,0.00399741,-0.002
 26594,0.00069279,0.00295910,0.00274058,-0.00024014,-0.00592847,0.00004
 352,0.00337170,-0.00011330,-0.00061358,-0.00132967,0.00030753,-0.00259
 420,-0.00009073,-0.00102404,-0.00072646,-0.00060283,-0.00046917,-0.000
 60841,0.00029057,0.00158016,-0.00035857,-0.00216194,0.00238693,0.00212
 320,-0.00089936,0.00233038,-0.00022748,0.00001345,-0.00007642,0.000300
 83,-0.00010902,-0.00037905,-0.00052809,-0.00051068,0.00093671,0.000985
 04,-0.00067488,0.00124126,0.00033661,0.00011859,-0.00015175,-0.0000873
 6,0.00012809,0.00000574,0.00009941,-0.00001520,0.00007657,-0.00007938,
 -0.00004589,-0.00020856,-0.00007798,-0.00012903,-0.00004755,-0.0000183
 6,0.00000099,-0.00002212,0.00005526,0.00008451,-0.00013267,0.00013655,
 0.00005770,-0.00000766,0.00000821,-0.00000166,-0.00005103,0.00002383,-
 0.00004480,-0.00003865,-0.00002974,-0.00000911,-0.00003955,0.00003202,
 0.00000227,0.00002974,0.00006454,-0.00002534,0.00008110,0.00008838,-0.
 00004021,-0.00009355,-0.00013194,0.00022191,0.00000096,-0.00005388,0.0
 0005931,-0.00017501,-0.00003123,-0.00001046,-0.00018343,0.00000219,0.0
 0007655,0.00000631,0.00001838,0.00007868,0.00002389,-0.00008078,-0.000
 01839,-0.00006578,-0.00002755,-0.00002752,-0.00000385,0.00006323,-0.00
 010729,-0.00001855,0.00003138,-0.00006647,-0.00001739,-0.00000114,0.00
 001445,0.00002865,-0.00000698,0.00001824,0.00001539,0.00002813,0.00001
 773,-0.00002548,-0.00001685,-0.00000711,-0.00001121,-0.00002403,-0.000
 00065,0.00512771,0.00955631,0.07003854,-0.30438729,0.10321829,0.113732
 51,-0.01354745,0.00260211,-0.01718597,-0.02541099,0.02114095,0.0313335
 4,-0.02005849,0.00021479,-0.00501716,-0.00635592,0.00455842,0.01000400
 ,0.00897474,-0.00209119,0.00673590,-0.00473506,-0.00254902,-0.00871293
 ,0.00004249,-0.00102954,-0.00247098,0.00240581,0.00089784,0.00375294,0
 .00031511,0.00013857,0.00052165,0.00015596,0.00031893,0.00019851,-0.00
 004006,0.00003409,0.00026262,-0.00019140,-0.00014403,-0.00053686,-0.00
 055132,-0.00020586,-0.00045952,-0.00025812,0.00018441,-0.00047383,-0.0
 0187522,-0.00058376,-0.00029774,-0.00045578,-0.00141071,0.00139086,-0.
 00067702,0.00200180,0.00084281,0.00085089,-0.00276795,-0.00117590,0.00
 297094,0.00111018,0.00119590,0.00005192,0.00247223,-0.00514997,-0.0004
 6401,0.00105838,0.00043415,-0.00050217,0.00092893,0.00021037,-0.001591
 42,-0.00038547,-0.00016741,-0.00074801,-0.00036178,-0.00039915,-0.0008
 7457,-0.00257911,0.00334561,0.00083723,-0.00069310,0.00130480,0.000448
 27,0.00182833,-0.00002934,0.00108265,0.00026175,-0.00035703,-0.0002921
 6,-0.00141823,-0.00004674,0.00019981,-0.00078380,-0.00001776,-0.000262
 82,-0.00043976,-0.00004184,-0.00044219,-0.00062834,0.00065289,-0.00030
 729,-0.00000145,0.00024526,-0.00036224,-0.00037537,0.00011267,-0.00055
 464,0.00007453,-0.00009819,-0.00001479,0.00073029,0.00003598,0.0001435
 0,0.00052131,0.00041545,0.00025832,0.00043203,-0.00027444,-0.14363205,
 -0.05096576,0.01901443,-0.05395768,-0.00461905,-0.00252015,-0.00289845
 ,0.00797537,-0.00168509,0.00251587,-0.00354569,-0.00155305,-0.00033475
 ,-0.00006369,-0.00100184,-0.00013430,0.00004698,0.00039568,0.00028182,
 0.00029688,0.00012794,-0.00013635,0.00006607,-0.00011868,0.00002884,0.
 00003192,-0.00004436,-0.00005060,0.00003475,-0.00000266,-0.00111415,-0
 .00188069,0.00013108,-0.00058173,0.00090982,0.00071873,0.00008380,-0.0
 0281118,0.00501833,0.00018993,0.00038623,-0.00140798,-0.00003673,-0.00
 014626,0.00043346,-0.00082653,0.00036233,-0.00040409,-0.03321643,-0.01
 219506,0.00243319,-0.01309793,-0.01493540,-0.00817125,-0.00127494,0.00
 280341,-0.00233688,0.00097522,-0.00120803,0.00503036,0.00050330,-0.000
 40441,-0.00087684,0.00030180,-0.00031576,0.00086114,0.00139750,-0.0021
 5868,-0.00088156,-0.00004246,0.00011142,0.00042210,-0.00074647,-0.0005
 6033,-0.00076682,-0.00002845,-0.00032659,0.00003470,0.00015795,-0.0002
 6974,-0.00039809,-0.00004339,-0.00011833,0.00008727,0.00580193,-0.0010
 3569,-0.00348739,0.60613823,0.09383787,-0.08538814,-0.07808436,0.01555
 374,-0.00128627,0.00514379,-0.00324268,0.00059512,-0.00334087,0.002098
 43,0.00210923,-0.00141615,0.00352563,0.00003811,-0.00661114,-0.0035057
 9,0.00024352,-0.00185988,-0.00184337,0.00128636,0.00280618,-0.00033904
 ,-0.00033621,0.00078055,-0.00048651,-0.00047510,-0.00008057,-0.0001049
 9,-0.00012232,-0.00014186,0.00000369,-0.00002555,0.00010913,-0.0001026
 3,0.00007198,-0.00007905,0.00009212,0.00003115,0.00011540,0.00006474,0
 .00016990,0.00014237,-0.00003604,-0.00001657,0.00004371,0.00047758,0.0
 0021011,0.00013573,0.00004741,0.00059160,-0.00043225,0.00028804,-0.000
 53012,-0.00020019,-0.00044758,0.00079544,0.00034651,-0.00066121,-0.000
 37256,-0.00041863,0.00045900,-0.00086679,0.00160888,0.00021871,-0.0002
 6991,-0.00014768,0.00022644,-0.00029630,-0.00005667,0.00035825,0.00016
 447,0.00010560,0.00013832,0.00013360,0.00015171,0.00053498,0.00109412,
 -0.00148458,-0.00054457,0.00029738,-0.00036614,-0.00004023,-0.00066402
 ,-0.00016200,-0.00024492,-0.00010054,0.00007611,-0.00021022,0.00060731
 ,0.00007222,-0.00011939,0.00029236,0.00004816,0.00006461,0.00014316,0.
 00003480,0.00012978,0.00022720,-0.00017111,0.00006460,0.00001246,-0.00
 004007,0.00008721,0.00011116,-0.00002579,0.00012572,-0.00000914,0.0000
 2148,0.00024265,-0.00034717,-0.00002539,0.00001028,-0.00020545,-0.0001
 7431,-0.00000726,-0.00013913,0.00006605,-0.04000538,-0.09279423,-0.004
 35963,0.01290478,0.01066748,-0.00220947,0.00278738,-0.00380837,0.00102
 185,0.00002837,0.00109039,-0.00011237,0.00112140,0.00045066,0.00134852
 ,0.00059126,0.00035598,-0.00030759,-0.00065228,-0.00011660,-0.00029999
 ,0.00020874,-0.00008573,-0.00001359,-0.00004841,-0.00001357,-0.0000103
 1,0.00007191,0.00000309,0.00002904,0.00038931,0.00085970,-0.00001256,0
 .00073761,-0.00035729,0.00010992,0.00038507,0.00072502,-0.00046994,-0.
 00011027,-0.00032671,0.00086228,0.00040924,-0.00450492,-0.00063064,0.0
 0308616,-0.00117621,0.00221399,-0.01433303,-0.00030699,-0.00003843,-0.
 03057718,-0.01785166,-0.00494508,-0.00048112,0.00188626,-0.00158084,0.
 00090290,-0.00243038,0.00357913,-0.00067806,0.00095432,-0.00000219,0.0
 0004010,-0.00057617,-0.00019756,0.00123026,-0.00103563,-0.00141036,-0.
 00043089,-0.00014264,0.00026007,-0.00079761,-0.00010441,-0.00065969,0.
 00000695,-0.00002567,0.00013179,0.00015617,-0.00015731,-0.00030774,-0.
 00001842,-0.00005811,0.00001455,-0.00189379,0.00006835,0.00057291,-0.0
 4174454,0.19103688,0.10890975,-0.07076348,-0.11085255,0.03047476,-0.00
 981279,-0.00133196,-0.00632009,-0.00116295,0.00336421,-0.00115342,-0.0
 0004106,0.00018637,0.00457573,-0.00511884,-0.01110357,-0.00116438,-0.0
 0059712,-0.00136297,-0.00778818,0.00238296,0.00038796,0.00083246,0.000
 58142,0.00219473,-0.00044072,0.00034316,0.00127823,-0.00019143,0.00001
 043,-0.00013749,0.00001257,-0.00013310,-0.00009763,0.00008252,-0.00003
 993,-0.00016338,0.00017095,0.00000883,0.00007922,-0.00004132,0.0000298
 1,-0.00007951,-0.00021081,-0.00004274,-0.00010554,0.00033166,0.0001257
 1,0.00023063,0.00029105,0.00058387,-0.00031012,0.00028936,-0.00051136,
 -0.00000844,-0.00043193,0.00091484,0.00005938,-0.00038184,-0.00022880,
 -0.00050730,-0.00047302,-0.00111824,0.00107036,0.00028843,-0.00039203,
 -0.00002644,0.00021138,-0.00031156,-0.00000083,0.00022872,0.00011334,0
 .00017241,0.00002308,0.00008678,0.00020732,0.00006752,0.00095707,-0.00
 038953,0.00010575,0.00031947,-0.00026175,-0.00025417,-0.00055304,0.000
 01158,-0.00015742,-0.00005415,0.00002108,-0.00017257,0.00070746,-0.000
 07254,-0.00002516,0.00025903,0.00000639,0.00015722,0.00016589,0.000068
 14,0.00012951,0.00017234,-0.00016609,0.00003329,0.00001223,0.00000167,
 0.00005310,0.00006315,-0.00001000,0.00009203,-0.00001337,0.00002683,0.
 00021621,-0.00044662,0.00002006,0.00000897,-0.00020111,-0.00013537,-0.
 00005415,-0.00019226,0.00015193,0.00849861,-0.01369081,-0.05005186,-0.
 00347203,0.00080149,0.00148021,-0.00030568,-0.00034049,0.00083849,0.00
 065640,0.00016712,-0.00032127,-0.00036688,0.00008809,0.00010480,-0.000
 49742,-0.00040117,0.00023346,0.00022703,-0.00010087,0.00029545,-0.0000
 4261,-0.00003680,0.00001844,0.00002671,-0.00001035,0.00003876,0.000019
 54,-0.00002256,-0.00000450,0.00021434,0.00021076,-0.00012932,0.0002349
 1,-0.00002170,0.00017804,-0.00200391,-0.00033873,-0.00044350,0.0000623
 3,0.00019375,-0.00025790,-0.00052544,0.00171536,-0.00054964,-0.0008992
 0,0.00051186,-0.00186464,0.03028101,0.00951684,0.00546059,-0.01523078,
 -0.00532216,0.00357798,-0.00059295,0.00127717,0.00021420,0.00036720,-0
 .00158763,-0.00051471,0.00044764,-0.00019317,-0.00069097,-0.00019122,0
 .00028229,0.00087967,0.00033381,0.00058035,-0.00088098,-0.00036782,-0.
 00009453,0.00033948,0.00007922,0.00011103,0.00036030,0.00004288,0.0000
 1424,-0.00003567,-0.00000773,-0.00009673,-0.00003659,-0.00008769,-0.00
 006869,0.00011076,-0.00235832,-0.00018145,-0.00021923,-0.14286734,0.09
 093426,0.15945465\\0.00001052,-0.00000272,0.00001579,0.00000161,0.0000
 0105,-0.00000841,0.00001487,0.00002548,0.00000095,-0.00002367,-0.00001
 474,-0.00000529,-0.00000441,-0.00000311,0.00001614,-0.00000168,-0.0000
 0507,-0.00000175,0.00000424,0.00001192,0.00000237,0.00000243,-0.000007
 71,0.00000688,-0.00000619,0.00000611,-0.00000340,-0.00000008,-0.000010
 84,0.00000093,-0.00000268,-0.00000688,0.00000083,-0.00000169,-0.000004
 96,0.00000467,0.00000134,0.00001309,-0.00000213,0.00000532,0.00000938,
 -0.00000201,0.00000435,0.00001157,-0.00000758,-0.00000250,0.00000352,-
 0.00001058,0.00000115,0.00001505,-0.00000311,-0.00000541,0.00001521,0.
 00001187,0.00000612,0.00000152,0.00000687,0.00000478,0.00000102,-0.000
 00637,-0.00000277,-0.00001382,-0.00002015,-0.00000534,-0.00000029,-0.0
 0000291,0.00000266,0.00000298,0.00000884,0.00000726,0.00000536,0.00000
 093,-0.00000021,0.00000958,-0.00000742,-0.00000289,0.00000087,-0.00000
 138,-0.00000067,-0.00000711,-0.00000355,-0.00000694,0.00000273,-0.0000
 1502,0.00000336,0.00000939,-0.00000319,0.00000125,-0.00001115,-0.00000
 255,-0.00000656,-0.00000669,-0.00001365,0.00000187,-0.00000328,-0.0000
 0557,-0.00000761,-0.00000686,-0.00000882,0.00000012,0.00000411,-0.0000
 0645,-0.00000376,0.00000652,-0.00001054,-0.00000112,0.00000929,-0.0000
 0644,0.00000595,-0.00000093,0.00000843,0.00000166,0.00000321,0.0000175
 5,0.00000494,0.00000135,0.00001770,-0.00000601,-0.00000251,0.00000249,
 0.00000296,0.00000404,-0.00000422,0.00000181,0.00000541,0.00000289,-0.
 00000477,0.00000296,0.00000054,-0.00000531,-0.00000451,-0.00000745,-0.
 00000852,-0.00000753,0.00000400,-0.00000114,-0.00000302,-0.00000523,-0
 .00000356,-0.00000308,-0.00000711,-0.00000317,-0.00001018,-0.00000087,
 -0.00000472,-0.00001011,-0.00000484,0.00000111,-0.00000408,0.00000084,
 0.00000140,0.00000436,-0.00000484,-0.00000071,-0.00000158,0.00000248,-
 0.00000594,-0.00000500,-0.00000465,-0.00000305,0.00000053,-0.00000480,
 -0.00000145,0.00000052,-0.00000785,0.00000334,0.00000188,0.00000165,0.
 00000376,-0.00000035,0.00000968,-0.00000087,0.00000336,0.00000501,0.00
 000306,0.00000130,0.00000760,0.00000204,0.00000115,0.00000853,0.000003
 61,0.00000538,0.00000434,0.00000098,-0.00000532,0.00000753,-0.00000032
 ,-0.00000509,0.00000396,0.00000152,-0.00000261,0.00001274,0.00000747,0
 .00000136,0.00000874,0.00000144,-0.00000620,0.00001024,0.00000345,-0.0
 0000316,0.00001276,0.00001225,-0.00001970,-0.00000422,-0.00000027,-0.0
 0000241,-0.00001243\\\@


 HE THAT RISETH LATE MUST TROT ALL DAY.

                  -- BENJAMIN FRANKLIN
 Job cpu time:       6 days  0 hours 59 minutes 11.9 seconds.
 Elapsed time:       0 days  7 hours 50 minutes 55.2 seconds.
 File lengths (MBytes):  RWF=  13892 Int=      0 D2E=      0 Chk=     92 Scr=      8
 Normal termination of Gaussian 16 at Tue May  6 10:09:52 2025.
