 Entering Gaussian System, Link 0=/sysapps/ubuntu-applications/gaussian-new/avx/g16//g16
 Input=i3-minor.in
 Output=i3-minor.log
 Initial command:
 /sysapps/ubuntu-applications/gaussian-new/avx/g16/l1.exe "/data/temp-scratch/selhajj1/7629070/Gau-3730420.inp" -scrdir="/data/temp-scratch/selhajj1/7629070/"
 Entering Link 1 = /sysapps/ubuntu-applications/gaussian-new/avx/g16/l1.exe PID=   3730422.
  
 Copyright (c) 1988,1990,1992,1993,1995,1998,2003,2009,2016,
            Gaussian, Inc.  All Rights Reserved.
  
 This is part of the Gaussian(R) 16 program.  It is based on
 the Gaussian(R) 09 system (copyright 2009, Gaussian, Inc.),
 the Gaussian(R) 03 system (copyright 2003, Gaussian, Inc.),
 the Gaussian(R) 98 system (copyright 1998, Gaussian, Inc.),
 the Gaussian(R) 94 system (copyright 1995, Gaussian, Inc.),
 the Gaussian 92(TM) system (copyright 1992, Gaussian, Inc.),
 the Gaussian 90(TM) system (copyright 1990, Gaussian, Inc.),
 the Gaussian 88(TM) system (copyright 1988, Gaussian, Inc.),
 the Gaussian 86(TM) system (copyright 1986, Carnegie Mellon
 University), and the Gaussian 82(TM) system (copyright 1983,
 Carnegie Mellon University). Gaussian is a federally registered
 trademark of Gaussian, Inc.
  
 This software contains proprietary and confidential information,
 including trade secrets, belonging to Gaussian, Inc.
  
 This software is provided under written license and may be
 used, copied, transmitted, or stored only in accord with that
 written license.
  
 The following legend is applicable only to US Government
 contracts under FAR:
  
                    RESTRICTED RIGHTS LEGEND
  
 Use, reproduction and disclosure by the US Government is
 subject to restrictions as set forth in subparagraphs (a)
 and (c) of the Commercial Computer Software - Restricted
 Rights clause in FAR 52.227-19.
  
 Gaussian, Inc.
 340 Quinnipiac St., Bldg. 40, Wallingford CT 06492
  
  
 ---------------------------------------------------------------
 Warning -- This program may not be used in any manner that
 competes with the business of Gaussian, Inc. or will provide
 assistance to any competitor of Gaussian, Inc.  The licensee
 of this program is prohibited from giving any competitor of
 Gaussian, Inc. access to this program.  By using this program,
 the user acknowledges that Gaussian, Inc. is engaged in the
 business of creating and licensing software in the field of
 computational chemistry and represents and warrants to the
 licensee that it is not a competitor of Gaussian, Inc. and that
 it will not use this program in any manner prohibited above.
 ---------------------------------------------------------------
  

 Cite this work as:
 Gaussian 16, Revision A.03,
 M. J. Frisch, G. W. Trucks, H. B. Schlegel, G. E. Scuseria, 
 M. A. Robb, J. R. Cheeseman, G. Scalmani, V. Barone, 
 G. A. Petersson, H. Nakatsuji, X. Li, M. Caricato, A. V. Marenich, 
 J. Bloino, B. G. Janesko, R. Gomperts, B. Mennucci, H. P. Hratchian, 
 J. V. Ortiz, A. F. Izmaylov, J. L. Sonnenberg, D. Williams-Young, 
 F. Ding, F. Lipparini, F. Egidi, J. Goings, B. Peng, A. Petrone, 
 T. Henderson, D. Ranasinghe, V. G. Zakrzewski, J. Gao, N. Rega, 
 G. Zheng, W. Liang, M. Hada, M. Ehara, K. Toyota, R. Fukuda, 
 J. Hasegawa, M. Ishida, T. Nakajima, Y. Honda, O. Kitao, H. Nakai, 
 T. Vreven, K. Throssell, J. A. Montgomery, Jr., J. E. Peralta, 
 F. Ogliaro, M. J. Bearpark, J. J. Heyd, E. N. Brothers, K. N. Kudin, 
 V. N. Staroverov, T. A. Keith, R. Kobayashi, J. Normand, 
 K. Raghavachari, A. P. Rendell, J. C. Burant, S. S. Iyengar, 
 J. Tomasi, M. Cossi, J. M. Millam, M. Klene, C. Adamo, R. Cammi, 
 J. W. Ochterski, R. L. Martin, K. Morokuma, O. Farkas, 
 J. B. Foresman, and D. J. Fox, Gaussian, Inc., Wallingford CT, 2016.
 
 ******************************************
 Gaussian 16:  ES64L-G16RevA.03 25-Dec-2016
                 3-Mar-2025 
 ******************************************
 %chk=i3-minor.chk
 %mem=616Gb
 %nprocshared=24
 Will use up to   24 processors via shared memory.
 ----------------------------------------------------------------------
 #P UMN15/genecp freq scf=(maxcyc=500) scrf=(smd,solvent=DiChloroEthane
 )
 ----------------------------------------------------------------------
 1/10=4,30=1,38=1/1,3;
 2/12=2,17=6,18=5,40=1/2;
 3/5=7,11=2,16=1,17=8,25=1,30=1,70=32201,71=2,72=10,74=-73,116=2,140=1/1,2,3;
 4//1;
 5/5=2,7=500,38=5,53=10,98=1/2;
 8/6=4,10=90,11=11/1;
 11/6=1,8=1,9=11,15=111,16=1/1,2,10;
 10/6=1/2;
 6/7=2,8=2,9=2,10=2,28=1/1;
 7/8=1,10=1,25=1/1,2,3,16;
 1/10=4,30=1/3;
 99//99;
 Leave Link    1 at Mon Mar  3 13:46:15 2025, MaxMem= 82678120448 cpu:               6.4 elap:               0.3
 (Enter /sysapps/ubuntu-applications/gaussian-new/avx/g16/l101.exe)
 ----
 freq
 ----
 Symbolic Z-matrix:
 Charge =  0 Multiplicity = 2
 C                     2.02379  -0.80856  -0.61618 
 C                     1.7058    0.10898   0.62672 
 C                     0.69102  -1.37004  -1.23987 
 O                    -0.12275  -0.53655  -1.57429 
 O                     0.71694   0.81097   0.56382 
 O                    -2.64791  -1.72183  -0.66614 
 O                    -1.63509  -0.31867   2.39455 
 O                    -1.093     2.66423  -1.06849 
 S                    -2.05302   3.50425  -0.31584 
 S                    -3.17224  -1.25098  -1.97265 
 S                    -0.74702  -1.50102   2.48242 
 O                    -2.90399   2.63393   0.53713 
 O                    -2.71594   4.56997  -1.03462 
 O                    -2.98957   0.2163   -2.08556 
 O                    -2.84015  -2.05557  -3.13217 
 O                    -0.18133  -1.84594   1.15709 
 O                     0.19655  -1.51684   3.59013 
 C                    -1.8908   -2.89197   2.84996 
 C                    -4.98914  -1.41938  -1.77211 
 C                    -0.97774   4.34263   0.91594 
 F                    -1.2346   -4.03594   2.71449 
 F                    -2.92155  -2.88056   2.02636 
 F                    -2.3264   -2.78799   4.09506 
 F                    -5.38671  -0.71871  -0.71741 
 F                    -5.31014  -2.69118  -1.58852 
 F                    -5.61166  -0.96702  -2.84905 
 F                    -0.36951   3.43281   1.66791 
 F                    -1.69866   5.1328    1.69502 
 F                    -0.05664   5.06993   0.29752 
 C                     3.78612   0.46233  -1.74646 
 C                     4.69383  -0.81101  -1.77545 
 C                     6.12484  -0.52005  -1.94326 
 C                     4.24207  -1.64638  -2.91414 
 C                     2.86804  -2.68227   0.96367 
 C                     5.24371  -2.67895   1.25972 
 C                     3.95194  -3.07595   1.69306 
 H                     1.84129  -2.90516   1.27092 
 H                     6.14656  -2.95016   1.81019 
 H                     3.84006  -3.65352   2.61084 
 N                     7.23262  -0.26692  -2.15464 
 N                     3.85515  -2.30877  -3.77952 
 N                     4.42859  -1.56278  -0.53347 
 N                     5.4448   -1.93205   0.17921 
 C                     3.04007  -1.96368  -0.32026 
 H                     2.84026  -2.72401  -1.11119 
 H                     3.88468   0.93516  -2.73548 
 C                     4.06671   1.47766  -0.65876 
 C                     3.13173   2.52162  -0.56031 
 C                     5.1532    1.44268   0.2239 
 C                     3.26702   3.50035   0.42139 
 H                     2.27824   2.54732  -1.24286 
 C                     5.29277   2.43333   1.19946 
 H                     5.90124   0.64847   0.18643 
 C                     4.34998   3.45683   1.30498 
 H                     2.52283   4.29514   0.49711 
 H                     6.14247   2.39549   1.88394 
 H                     4.45937   4.22326   2.07524 
 Yb                   -1.7053    0.49579   0.0456 
 O                     2.46664  -0.03419  -1.71257 
 C                     0.51955  -2.80987  -1.5866 
 H                    -0.52207  -2.9464   -1.90242 
 H                     1.18309  -3.04071  -2.44016 
 H                     0.76153  -3.49102  -0.76013 
 C                     2.54247   0.11622   1.86606 
 H                     2.04289  -0.54502   2.59629 
 H                     3.58323  -0.19379   1.73729 
 H                     2.51185   1.13616   2.27615 
 
 ITRead=  0  0  0  0  0  0  0  0  0  0  0  0  0  0  0  0  0  0  0  0
 ITRead=  0  0  0  0  0  0  0  0  0  0  0  0  0  0  0  0  0  0  0  0
 ITRead=  0  0  0  0  0  0  0  0  0  0  0  0  0  0  0  0  0  0  0  0
 ITRead=  0  0  0  0  0  0  0
 MicOpt= -1 -1 -1 -1 -1 -1 -1 -1 -1 -1 -1 -1 -1 -1 -1 -1 -1 -1 -1 -1
 MicOpt= -1 -1 -1 -1 -1 -1 -1 -1 -1 -1 -1 -1 -1 -1 -1 -1 -1 -1 -1 -1
 MicOpt= -1 -1 -1 -1 -1 -1 -1 -1 -1 -1 -1 -1 -1 -1 -1 -1 -1 -1 -1 -1
 MicOpt= -1 -1 -1 -1 -1 -1 -1
 NAtoms=     67 NQM=       67 NQMF=       0 NMMI=      0 NMMIF=      0
                NMic=       0 NMicF=      0.
                    Isotopes and Nuclear Properties:
 (Nuclear quadrupole moments (NQMom) in fm**2, nuclear magnetic moments (NMagM)
  in nuclear magnetons)

  Atom         1           2           3           4           5           6           7           8           9          10
 IAtWgt=          12          12          12          16          16          16          16          16          32          32
 AtmWgt=  12.0000000  12.0000000  12.0000000  15.9949146  15.9949146  15.9949146  15.9949146  15.9949146  31.9720718  31.9720718
 NucSpn=           0           0           0           0           0           0           0           0           0           0
 AtZEff=  -0.0000000  -0.0000000  -0.0000000  -0.0000000  -0.0000000  -0.0000000  -0.0000000  -0.0000000  -0.0000000  -0.0000000
 NQMom=    0.0000000   0.0000000   0.0000000   0.0000000   0.0000000   0.0000000   0.0000000   0.0000000   0.0000000   0.0000000
 NMagM=    0.0000000   0.0000000   0.0000000   0.0000000   0.0000000   0.0000000   0.0000000   0.0000000   0.0000000   0.0000000
 AtZNuc=   6.0000000   6.0000000   6.0000000   8.0000000   8.0000000   8.0000000   8.0000000   8.0000000  16.0000000  16.0000000

  Atom        11          12          13          14          15          16          17          18          19          20
 IAtWgt=          32          16          16          16          16          16          16          12          12          12
 AtmWgt=  31.9720718  15.9949146  15.9949146  15.9949146  15.9949146  15.9949146  15.9949146  12.0000000  12.0000000  12.0000000
 NucSpn=           0           0           0           0           0           0           0           0           0           0
 AtZEff=  -0.0000000  -0.0000000  -0.0000000  -0.0000000  -0.0000000  -0.0000000  -0.0000000  -0.0000000  -0.0000000  -0.0000000
 NQMom=    0.0000000   0.0000000   0.0000000   0.0000000   0.0000000   0.0000000   0.0000000   0.0000000   0.0000000   0.0000000
 NMagM=    0.0000000   0.0000000   0.0000000   0.0000000   0.0000000   0.0000000   0.0000000   0.0000000   0.0000000   0.0000000
 AtZNuc=  16.0000000   8.0000000   8.0000000   8.0000000   8.0000000   8.0000000   8.0000000   6.0000000   6.0000000   6.0000000

  Atom        21          22          23          24          25          26          27          28          29          30
 IAtWgt=          19          19          19          19          19          19          19          19          19          12
 AtmWgt=  18.9984032  18.9984032  18.9984032  18.9984032  18.9984032  18.9984032  18.9984032  18.9984032  18.9984032  12.0000000
 NucSpn=           1           1           1           1           1           1           1           1           1           0
 AtZEff=  -0.0000000  -0.0000000  -0.0000000  -0.0000000  -0.0000000  -0.0000000  -0.0000000  -0.0000000  -0.0000000  -0.0000000
 NQMom=    0.0000000   0.0000000   0.0000000   0.0000000   0.0000000   0.0000000   0.0000000   0.0000000   0.0000000   0.0000000
 NMagM=    2.6288670   2.6288670   2.6288670   2.6288670   2.6288670   2.6288670   2.6288670   2.6288670   2.6288670   0.0000000
 AtZNuc=   9.0000000   9.0000000   9.0000000   9.0000000   9.0000000   9.0000000   9.0000000   9.0000000   9.0000000   6.0000000

  Atom        31          32          33          34          35          36          37          38          39          40
 IAtWgt=          12          12          12          12          12          12           1           1           1          14
 AtmWgt=  12.0000000  12.0000000  12.0000000  12.0000000  12.0000000  12.0000000   1.0078250   1.0078250   1.0078250  14.0030740
 NucSpn=           0           0           0           0           0           0           1           1           1           2
 AtZEff=  -0.0000000  -0.0000000  -0.0000000  -0.0000000  -0.0000000  -0.0000000  -0.0000000  -0.0000000  -0.0000000  -0.0000000
 NQMom=    0.0000000   0.0000000   0.0000000   0.0000000   0.0000000   0.0000000   0.0000000   0.0000000   0.0000000   2.0440000
 NMagM=    0.0000000   0.0000000   0.0000000   0.0000000   0.0000000   0.0000000   2.7928460   2.7928460   2.7928460   0.4037610
 AtZNuc=   6.0000000   6.0000000   6.0000000   6.0000000   6.0000000   6.0000000   1.0000000   1.0000000   1.0000000   7.0000000

  Atom        41          42          43          44          45          46          47          48          49          50
 IAtWgt=          14          14          14          12           1           1          12          12          12          12
 AtmWgt=  14.0030740  14.0030740  14.0030740  12.0000000   1.0078250   1.0078250  12.0000000  12.0000000  12.0000000  12.0000000
 NucSpn=           2           2           2           0           1           1           0           0           0           0
 AtZEff=  -0.0000000  -0.0000000  -0.0000000  -0.0000000  -0.0000000  -0.0000000  -0.0000000  -0.0000000  -0.0000000  -0.0000000
 NQMom=    2.0440000   2.0440000   2.0440000   0.0000000   0.0000000   0.0000000   0.0000000   0.0000000   0.0000000   0.0000000
 NMagM=    0.4037610   0.4037610   0.4037610   0.0000000   2.7928460   2.7928460   0.0000000   0.0000000   0.0000000   0.0000000
 AtZNuc=   7.0000000   7.0000000   7.0000000   6.0000000   1.0000000   1.0000000   6.0000000   6.0000000   6.0000000   6.0000000

  Atom        51          52          53          54          55          56          57          58          59          60
 IAtWgt=           1          12           1          12           1           1           1         174          16          12
 AtmWgt=   1.0078250  12.0000000   1.0078250  12.0000000   1.0078250   1.0078250   1.0078250 173.9390000  15.9949146  12.0000000
 NucSpn=           1           0           1           0           1           1           1           0           0           0
 AtZEff=  -0.0000000  -0.0000000  -0.0000000  -0.0000000  -0.0000000  -0.0000000  -0.0000000  -0.0000000  -0.0000000  -0.0000000
 NQMom=    0.0000000   0.0000000   0.0000000   0.0000000   0.0000000   0.0000000   0.0000000   0.0000000   0.0000000   0.0000000
 NMagM=    2.7928460   0.0000000   2.7928460   0.0000000   2.7928460   2.7928460   2.7928460   0.0000000   0.0000000   0.0000000
 AtZNuc=   1.0000000   6.0000000   1.0000000   6.0000000   1.0000000   1.0000000   1.0000000  70.0000000   8.0000000   6.0000000

  Atom        61          62          63          64          65          66          67
 IAtWgt=           1           1           1          12           1           1           1
 AtmWgt=   1.0078250   1.0078250   1.0078250  12.0000000   1.0078250   1.0078250   1.0078250
 NucSpn=           1           1           1           0           1           1           1
 AtZEff=  -0.0000000  -0.0000000  -0.0000000  -0.0000000  -0.0000000  -0.0000000  -0.0000000
 NQMom=    0.0000000   0.0000000   0.0000000   0.0000000   0.0000000   0.0000000   0.0000000
 NMagM=    2.7928460   2.7928460   2.7928460   0.0000000   2.7928460   2.7928460   2.7928460
 AtZNuc=   1.0000000   1.0000000   1.0000000   6.0000000   1.0000000   1.0000000   1.0000000
 Leave Link  101 at Mon Mar  3 13:46:15 2025, MaxMem= 82678120448 cpu:               4.4 elap:               0.2
 (Enter /sysapps/ubuntu-applications/gaussian-new/avx/g16/l103.exe)

 GradGradGradGradGradGradGradGradGradGradGradGradGradGradGradGradGradGrad
 Berny optimization.
 Initialization pass.
 Trust Radius=3.00D-01 FncErr=1.00D-07 GrdErr=1.00D-07 EigMax=2.50D+02 EigMin=1.00D-04
 Number of steps in this run=      2 maximum allowed number of steps=      2.
 GradGradGradGradGradGradGradGradGradGradGradGradGradGradGradGradGradGrad

 Leave Link  103 at Mon Mar  3 13:46:15 2025, MaxMem= 82678120448 cpu:               1.1 elap:               0.1
 (Enter /sysapps/ubuntu-applications/gaussian-new/avx/g16/l202.exe)
 Stoichiometry    C22H16F9N4O12S3Yb(2)
 Framework group  C1[X(C22H16F9N4O12S3Yb)]
 Deg. of freedom   195
 Full point group                 C1      NOp   1
 Largest Abelian subgroup         C1      NOp   1
 Largest concise Abelian subgroup C1      NOp   1
                         Standard orientation:                         
 ---------------------------------------------------------------------
 Center     Atomic      Atomic             Coordinates (Angstroms)
 Number     Number       Type             X           Y           Z
 ---------------------------------------------------------------------
      1          6           0        2.023785   -0.808561   -0.616178
      2          6           0        1.705804    0.108983    0.626718
      3          6           0        0.691019   -1.370038   -1.239873
      4          8           0       -0.122754   -0.536552   -1.574287
      5          8           0        0.716937    0.810974    0.563824
      6          8           0       -2.647913   -1.721831   -0.666144
      7          8           0       -1.635085   -0.318667    2.394548
      8          8           0       -1.092998    2.664228   -1.068490
      9         16           0       -2.053022    3.504249   -0.315837
     10         16           0       -3.172242   -1.250979   -1.972654
     11         16           0       -0.747021   -1.501021    2.482423
     12          8           0       -2.903987    2.633931    0.537126
     13          8           0       -2.715940    4.569971   -1.034623
     14          8           0       -2.989573    0.216304   -2.085562
     15          8           0       -2.840151   -2.055567   -3.132169
     16          8           0       -0.181328   -1.845935    1.157086
     17          8           0        0.196552   -1.516840    3.590125
     18          6           0       -1.890800   -2.891966    2.849957
     19          6           0       -4.989137   -1.419376   -1.772110
     20          6           0       -0.977739    4.342629    0.915943
     21          9           0       -1.234602   -4.035943    2.714487
     22          9           0       -2.921552   -2.880561    2.026358
     23          9           0       -2.326397   -2.787993    4.095064
     24          9           0       -5.386707   -0.718711   -0.717407
     25          9           0       -5.310139   -2.691181   -1.588519
     26          9           0       -5.611664   -0.967024   -2.849045
     27          9           0       -0.369509    3.432810    1.667909
     28          9           0       -1.698660    5.132803    1.695015
     29          9           0       -0.056641    5.069933    0.297516
     30          6           0        3.786118    0.462331   -1.746464
     31          6           0        4.693832   -0.811008   -1.775449
     32          6           0        6.124845   -0.520052   -1.943256
     33          6           0        4.242068   -1.646378   -2.914137
     34          6           0        2.868041   -2.682270    0.963670
     35          6           0        5.243706   -2.678951    1.259720
     36          6           0        3.951937   -3.075952    1.693064
     37          1           0        1.841293   -2.905156    1.270921
     38          1           0        6.146557   -2.950158    1.810187
     39          1           0        3.840064   -3.653523    2.610835
     40          7           0        7.232619   -0.266918   -2.154644
     41          7           0        3.855151   -2.308766   -3.779522
     42          7           0        4.428591   -1.562777   -0.533469
     43          7           0        5.444796   -1.932053    0.179209
     44          6           0        3.040074   -1.963676   -0.320264
     45          1           0        2.840264   -2.724006   -1.111188
     46          1           0        3.884677    0.935155   -2.735481
     47          6           0        4.066706    1.477658   -0.658755
     48          6           0        3.131734    2.521624   -0.560308
     49          6           0        5.153200    1.442681    0.223902
     50          6           0        3.267021    3.500349    0.421392
     51          1           0        2.278236    2.547320   -1.242858
     52          6           0        5.292767    2.433326    1.199459
     53          1           0        5.901242    0.648465    0.186430
     54          6           0        4.349979    3.456825    1.304979
     55          1           0        2.522832    4.295140    0.497111
     56          1           0        6.142468    2.395488    1.883943
     57          1           0        4.459367    4.223263    2.075242
     58         70           0       -1.705303    0.495792    0.045596
     59          8           0        2.466638   -0.034193   -1.712567
     60          6           0        0.519547   -2.809866   -1.586601
     61          1           0       -0.522066   -2.946398   -1.902422
     62          1           0        1.183090   -3.040711   -2.440160
     63          1           0        0.761528   -3.491016   -0.760127
     64          6           0        2.542469    0.116216    1.866063
     65          1           0        2.042889   -0.545023    2.596292
     66          1           0        3.583233   -0.193791    1.737288
     67          1           0        2.511849    1.136157    2.276150
 ---------------------------------------------------------------------
 Rotational constants (GHZ):           0.0653622           0.0417714           0.0353825
 Leave Link  202 at Mon Mar  3 13:46:15 2025, MaxMem= 82678120448 cpu:               2.2 elap:               0.2
 (Enter /sysapps/ubuntu-applications/gaussian-new/avx/g16/l301.exe)
 General basis read from cards:  (5D, 7F)
 Centers:      37     38     39     45     46     51     53     55     56     57
 Centers:      61     62     63     65     66     67
 S 3 1.00
     Exponent=  1.3010701000D+01 Coefficients=  1.9682158000D-02
     Exponent=  1.9622572000D+00 Coefficients=  1.3796524000D-01
     Exponent=  4.4453796000D-01 Coefficients=  4.7831935000D-01
 S 1 1.00
     Exponent=  1.2194962000D-01 Coefficients=  1.0000000000D+00
 P 1 1.00
     Exponent=  8.0000000000D-01 Coefficients=  1.0000000000D+00
 ****
 Centers:       1      2      3     18     19     20     30     31     32     33
 Centers:      34     35     36     44     47     48     49     50     52     54
 Centers:      60     64
 S 5 1.00
     Exponent=  1.2384016938D+03 Coefficients=  5.4568832082D-03
     Exponent=  1.8629004992D+02 Coefficients=  4.0638409211D-02
     Exponent=  4.2251176346D+01 Coefficients=  1.8025593888D-01
     Exponent=  1.1676557932D+01 Coefficients=  4.6315121755D-01
     Exponent=  3.5930506482D+00 Coefficients=  4.4087173314D-01
 S 1 1.00
     Exponent=  4.0245147363D-01 Coefficients=  1.0000000000D+00
 S 1 1.00
     Exponent=  1.3090182668D-01 Coefficients=  1.0000000000D+00
 P 3 1.00
     Exponent=  9.4680970621D+00 Coefficients=  3.8387871728D-02
     Exponent=  2.0103545142D+00 Coefficients=  2.1117025112D-01
     Exponent=  5.4771004707D-01 Coefficients=  5.1328172114D-01
 P 1 1.00
     Exponent=  1.5268613795D-01 Coefficients=  1.0000000000D+00
 D 1 1.00
     Exponent=  8.0000000000D-01 Coefficients=  1.0000000000D+00
 ****
 Centers:      40     41     42     43
 S 5 1.00
     Exponent=  1.7128415853D+03 Coefficients= -5.3934125305D-03
     Exponent=  2.5764812677D+02 Coefficients= -4.0221581118D-02
     Exponent=  5.8458245853D+01 Coefficients= -1.7931144990D-01
     Exponent=  1.6198367905D+01 Coefficients= -4.6376317823D-01
     Exponent=  5.0052600809D+00 Coefficients= -4.4171422662D-01
 S 1 1.00
     Exponent=  5.8731856571D-01 Coefficients=  1.0000000000D+00
 S 1 1.00
     Exponent=  1.8764592253D-01 Coefficients=  1.0000000000D+00
 P 3 1.00
     Exponent=  1.3571470233D+01 Coefficients= -4.0072398852D-02
     Exponent=  2.9257372874D+00 Coefficients= -2.1807045028D-01
     Exponent=  7.9927750754D-01 Coefficients= -5.1294466049D-01
 P 1 1.00
     Exponent=  2.1954348034D-01 Coefficients=  1.0000000000D+00
 D 1 1.00
     Exponent=  1.0000000000D+00 Coefficients=  1.0000000000D+00
 ****
 Centers:       4      5      6      7      8     12     13     14     15     16
 Centers:      17     59
 S 5 1.00
     Exponent=  2.2661767785D+03 Coefficients= -5.3431809926D-03
     Exponent=  3.4087010191D+02 Coefficients= -3.9890039230D-02
     Exponent=  7.7363135167D+01 Coefficients= -1.7853911985D-01
     Exponent=  2.1479644940D+01 Coefficients= -4.6427684959D-01
     Exponent=  6.6589433124D+00 Coefficients= -4.4309745172D-01
 S 1 1.00
     Exponent=  8.0975975668D-01 Coefficients=  1.0000000000D+00
 S 1 1.00
     Exponent=  2.5530772234D-01 Coefficients=  1.0000000000D+00
 P 3 1.00
     Exponent=  1.7721504317D+01 Coefficients=  4.3394573193D-02
     Exponent=  3.8635505440D+00 Coefficients=  2.3094120765D-01
     Exponent=  1.0480920883D+00 Coefficients=  5.1375311064D-01
 P 1 1.00
     Exponent=  2.7641544411D-01 Coefficients=  1.0000000000D+00
 D 1 1.00
     Exponent=  1.2000000000D+00 Coefficients=  1.0000000000D+00
 ****
 Centers:      21     22     23     24     25     26     27     28     29
 S 5 1.00
     Exponent=  2.8948325990D+03 Coefficients= -5.3408255515D-03
     Exponent=  4.3541939120D+02 Coefficients= -3.9904258866D-02
     Exponent=  9.8843328866D+01 Coefficients= -1.7912768038D-01
     Exponent=  2.7485198001D+01 Coefficients= -4.6758090825D-01
     Exponent=  8.5405498171D+00 Coefficients= -4.4653131020D-01
 S 1 1.00
     Exponent=  1.0654578038D+00 Coefficients=  1.0000000000D+00
 S 1 1.00
     Exponent=  3.3247346748D-01 Coefficients=  1.0000000000D+00
 P 3 1.00
     Exponent=  2.2696633924D+01 Coefficients= -4.5212874436D-02
     Exponent=  4.9872339257D+00 Coefficients= -2.3754317067D-01
     Exponent=  1.3491613954D+00 Coefficients= -5.1287353587D-01
 P 1 1.00
     Exponent=  3.4829881977D-01 Coefficients=  1.0000000000D+00
 D 1 1.00
     Exponent=  1.4000000000D+00 Coefficients=  1.0000000000D+00
 ****
 Centers:       9     10     11
 S 5 1.00
     Exponent=  9.1849303010D+03 Coefficients= -2.2294387756D-03
     Exponent=  1.3815105503D+03 Coefficients= -1.6683029937D-02
     Exponent=  3.1387147580D+02 Coefficients= -7.5262436116D-02
     Exponent=  8.8053870623D+01 Coefficients= -1.9376827038D-01
     Exponent=  2.7039914905D+01 Coefficients= -1.7718020803D-01
 S 3 1.00
     Exponent=  4.5648731303D+01 Coefficients= -1.0736062573D-01
     Exponent=  4.9664522326D+00 Coefficients=  6.5066293018D-01
     Exponent=  2.0116242047D+00 Coefficients=  5.9712155354D-01
 S 1 1.00
     Exponent=  3.5661077013D-01 Coefficients=  1.0000000000D+00
 S 1 1.00
     Exponent=  1.3507221477D-01 Coefficients=  1.0000000000D+00
 P 5 1.00
     Exponent=  2.6198233439D+02 Coefficients= -9.2729929822D-03
     Exponent=  6.1306894736D+01 Coefficients= -6.6547669241D-02
     Exponent=  1.9103729887D+01 Coefficients= -2.4828595903D-01
     Exponent=  6.6567720378D+00 Coefficients= -4.8703847402D-01
     Exponent=  2.3959635161D+00 Coefficients= -3.9337850312D-01
 P 1 1.00
     Exponent=  6.1776161679D-01 Coefficients=  1.0000000000D+00
 P 1 1.00
     Exponent=  1.6993376871D-01 Coefficients=  1.0000000000D+00
 D 1 1.00
     Exponent=  5.5000000000D-01 Coefficients=  1.0000000000D+00
 ****
 Centers:      58
 S 5 1.00
     Exponent=  9.1972903000D+04 Coefficients=  5.1000000000D-05
     Exponent=  1.3787371000D+04 Coefficients=  3.8600000000D-04
     Exponent=  3.1236135000D+03 Coefficients=  1.8440000000D-03
     Exponent=  8.7147540000D+02 Coefficients=  5.3560000000D-03
     Exponent=  2.5046300000D+02 Coefficients=  8.8590000000D-03
 S 1 1.00
     Exponent=  5.8282700000D+01 Coefficients=  1.0000000000D+00
 S 1 1.00
     Exponent=  4.1630500000D+01 Coefficients=  1.0000000000D+00
 S 1 1.00
     Exponent=  2.0216400000D+01 Coefficients=  1.0000000000D+00
 S 1 1.00
     Exponent=  4.9972000000D+00 Coefficients=  1.0000000000D+00
 S 1 1.00
     Exponent=  2.4822000000D+00 Coefficients=  1.0000000000D+00
 S 1 1.00
     Exponent=  9.1790000000D-01 Coefficients=  1.0000000000D+00
 S 1 1.00
     Exponent=  3.8530000000D-01 Coefficients=  1.0000000000D+00
 S 1 1.00
     Exponent=  6.1400000000D-02 Coefficients=  1.0000000000D+00
 S 1 1.00
     Exponent=  2.5000000000D-02 Coefficients=  1.0000000000D+00
 P 3 1.00
     Exponent=  1.2274108000D+01 Coefficients= -1.5252141000D-01
     Exponent=  1.0695631000D+01 Coefficients= -2.0243492000D-01
     Exponent=  2.0359782000D+00 Coefficients= -1.9621046000D-01
 P 6 1.00
     Exponent=  1.4975567000D+03 Coefficients= -1.0182934000D-03
     Exponent=  3.7504101000D+02 Coefficients= -6.0919401000D-03
     Exponent=  1.2869727000D+02 Coefficients= -1.7077693000D-02
     Exponent=  4.5270759000D+01 Coefficients= -3.5655508000D-02
     Exponent=  1.4906971000D+01 Coefficients=  2.3732226000D-01
     Exponent=  5.6450858000D+00 Coefficients= -3.0559689000D-01
 P 1 1.00
     Exponent=  3.6752106000D+00 Coefficients=  1.0000000000D+00
 P 1 1.00
     Exponent=  1.3296961000D+00 Coefficients=  1.0000000000D+00
 P 1 1.00
     Exponent=  5.5338966000D-01 Coefficients=  1.0000000000D+00
 P 1 1.00
     Exponent=  2.2382350000D-01 Coefficients=  1.0000000000D+00
 P 1 1.00
     Exponent=  6.8350467650D-02 Coefficients=  1.0000000000D+00
 P 1 1.00
     Exponent=  2.5355670803D-02 Coefficients=  1.0000000000D+00
 D 6 1.00
     Exponent=  4.6976060000D+02 Coefficients=  1.9840000000D-03
     Exponent=  1.4261280000D+02 Coefficients=  1.6013000000D-02
     Exponent=  5.5126700000D+01 Coefficients=  6.3153000000D-02
     Exponent=  2.3441500000D+01 Coefficients=  1.3780000000D-01
     Exponent=  9.4951000000D+00 Coefficients=  2.8549800000D-01
     Exponent=  4.5792000000D+00 Coefficients=  4.3830900000D-01
 D 1 1.00
     Exponent=  2.1646000000D+00 Coefficients=  1.0000000000D+00
 D 1 1.00
     Exponent=  9.2380000000D-01 Coefficients=  1.0000000000D+00
 D 1 1.00
     Exponent=  3.1070000000D-01 Coefficients=  1.0000000000D+00
 D 1 1.00
     Exponent=  9.1400000000D-02 Coefficients=  1.0000000000D+00
 F 5 1.00
     Exponent=  1.4202930000D+02 Coefficients=  5.9570000000D-03
     Exponent=  5.1086200000D+01 Coefficients=  5.3180000000D-02
     Exponent=  2.2874100000D+01 Coefficients=  1.7807600000D-01
     Exponent=  1.0502500000D+01 Coefficients=  3.0060000000D-01
     Exponent=  4.7872000000D+00 Coefficients=  3.5034200000D-01
 F 1 1.00
     Exponent=  2.1088000000D+00 Coefficients=  1.0000000000D+00
 F 1 1.00
     Exponent=  8.6090000000D-01 Coefficients=  1.0000000000D+00
 F 1 1.00
     Exponent=  3.0600000000D-01 Coefficients=  1.0000000000D+00
 G 1 1.00
     Exponent=  5.1330000000D-01 Coefficients=  1.0000000000D+00
 ****
 ======================================================================================================
                                       Pseudopotential Parameters
 ======================================================================================================
  Center     Atomic      Valence      Angular      Power
  Number     Number     Electrons     Momentum     of R      Exponent        Coefficient   SO-Coeffient
 ======================================================================================================
    1          6
                                   No pseudopotential on this center.
    2          6
                                   No pseudopotential on this center.
    3          6
                                   No pseudopotential on this center.
    4          8
                                   No pseudopotential on this center.
    5          8
                                   No pseudopotential on this center.
    6          8
                                   No pseudopotential on this center.
    7          8
                                   No pseudopotential on this center.
    8          8
                                   No pseudopotential on this center.
    9         16
                                   No pseudopotential on this center.
   10         16
                                   No pseudopotential on this center.
   11         16
                                   No pseudopotential on this center.
   12          8
                                   No pseudopotential on this center.
   13          8
                                   No pseudopotential on this center.
   14          8
                                   No pseudopotential on this center.
   15          8
                                   No pseudopotential on this center.
   16          8
                                   No pseudopotential on this center.
   17          8
                                   No pseudopotential on this center.
   18          6
                                   No pseudopotential on this center.
   19          6
                                   No pseudopotential on this center.
   20          6
                                   No pseudopotential on this center.
   21          9
                                   No pseudopotential on this center.
   22          9
                                   No pseudopotential on this center.
   23          9
                                   No pseudopotential on this center.
   24          9
                                   No pseudopotential on this center.
   25          9
                                   No pseudopotential on this center.
   26          9
                                   No pseudopotential on this center.
   27          9
                                   No pseudopotential on this center.
   28          9
                                   No pseudopotential on this center.
   29          9
                                   No pseudopotential on this center.
   30          6
                                   No pseudopotential on this center.
   31          6
                                   No pseudopotential on this center.
   32          6
                                   No pseudopotential on this center.
   33          6
                                   No pseudopotential on this center.
   34          6
                                   No pseudopotential on this center.
   35          6
                                   No pseudopotential on this center.
   36          6
                                   No pseudopotential on this center.
   37          1
                                   No pseudopotential on this center.
   38          1
                                   No pseudopotential on this center.
   39          1
                                   No pseudopotential on this center.
   40          7
                                   No pseudopotential on this center.
   41          7
                                   No pseudopotential on this center.
   42          7
                                   No pseudopotential on this center.
   43          7
                                   No pseudopotential on this center.
   44          6
                                   No pseudopotential on this center.
   45          1
                                   No pseudopotential on this center.
   46          1
                                   No pseudopotential on this center.
   47          6
                                   No pseudopotential on this center.
   48          6
                                   No pseudopotential on this center.
   49          6
                                   No pseudopotential on this center.
   50          6
                                   No pseudopotential on this center.
   51          1
                                   No pseudopotential on this center.
   52          6
                                   No pseudopotential on this center.
   53          1
                                   No pseudopotential on this center.
   54          6
                                   No pseudopotential on this center.
   55          1
                                   No pseudopotential on this center.
   56          1
                                   No pseudopotential on this center.
   57          1
                                   No pseudopotential on this center.
   58         70           42
                                      H and up 
                                                     2        1.0000000        0.00000000    0.00000000
                                      S - H
                                                     2       32.4244840      891.01377700    0.00000000
                                      P - H
                                                     2       18.6562320      264.03695300    0.00000000
                                      D - H
                                                     2       10.4902220       73.92391900    0.00000000
                                      F - H
                                                     2       20.7741830      -39.59217300    0.00000000
                                      G - H
                                                     2       28.4310280      -34.63863800    0.00000000
   59          8
                                   No pseudopotential on this center.
   60          6
                                   No pseudopotential on this center.
   61          1
                                   No pseudopotential on this center.
   62          1
                                   No pseudopotential on this center.
   63          1
                                   No pseudopotential on this center.
   64          6
                                   No pseudopotential on this center.
   65          1
                                   No pseudopotential on this center.
   66          1
                                   No pseudopotential on this center.
   67          1
                                   No pseudopotential on this center.
 ======================================================================================================
 Ernie: Thresh=  0.10000D-02 Tol=  0.10000D-05 Strict=F.
 There are   961 symmetry adapted cartesian basis functions of A   symmetry.
 There are   888 symmetry adapted basis functions of A   symmetry.
   888 basis functions,  1612 primitive gaussians,   961 cartesian basis functions
   222 alpha electrons      221 beta electrons
       nuclear repulsion energy     10879.8874836213 Hartrees.
 IExCor= 7252 DFT=T Ex+Corr=MN15 ExCW=0 ScaHFX=  0.440000
 ScaDFX=  1.000000  1.000000  1.000000  1.000000 ScalE2=  1.000000  1.000000
 IRadAn=      5 IRanWt=     -1 IRanGd=            0 ICorTp=0 IEmpDi=  4
 NAtoms=   67 NActive=   67 NUniq=   67 SFac= 1.00D+00 NAtFMM=   60 NAOKFM=T Big=T
 Integral buffers will be    131072 words long.
 Raffenetti 2 integral format.
 Two-electron integral symmetry is turned on.
 Force inversion solution in PCM.
 ------------------------------------------------------------------------------
 Polarizable Continuum Model (PCM)
 =================================
 Model                : PCM.
 Atomic radii         : SMD-Coulomb.
 Polarization charges : Total charges.
 Charge compensation  : None.
 Solution method      : Matrix inversion.
 Cavity type          : VdW (van der Waals Surface) (Alpha=1.000).
 Cavity algorithm     : GePol (No added spheres)
                        Default sphere list used, NSphG=   67.
                        Lebedev-Laikov grids with approx.  5.0 points / Ang**2.
                        Smoothing algorithm: York/Karplus (Gamma=1.0000).
                        Polarization charges: spherical gaussians, with
                                              point-specific exponents (IZeta= 3).
                        Self-potential: point-specific (ISelfS= 7).
                        Self-field    : sphere-specific E.n sum rule (ISelfD= 2).
 1st derivatives      : Analytical E(r).r(x)/FMM algorithm (CHGder, D1EAlg=3).
                        Cavity 1st derivative terms included.
 2nd derivatives      : Analytical E(r).r(xy)/FMM algorithm (CHGder, D2EAlg=3).
                        Cavity 2nd derivative terms included.
 Solvent              : DiChloroEthane, Eps=  10.125000 Eps(inf)=   2.087447
 ------------------------------------------------------------------------------
 GePol: Number of generator spheres                  =      67
 GePol: Total number of spheres                      =      67
 GePol: Number of exposed spheres                    =      67 (100.00%)
 GePol: Number of points                             =    4803
 GePol: Average weight of points                     =       0.13
 GePol: Minimum weight of points                     =   0.48D-11
 GePol: Maximum weight of points                     =    0.21501
 GePol: Number of points with low weight             =     267
 GePol: Fraction of low-weight points (<1% of avg)   =       5.56%
 GePol: Cavity surface area                          =    634.353 Ang**2
 GePol: Cavity volume                                =    754.878 Ang**3
 ------------------------------------------------------------------------------
 Atomic radii for non-electrostatic terms: SMD-CDS.
 ------------------------------------------------------------------------------
 PCM non-electrostatic energy =         0.0055373502 Hartrees.
 Nuclear repulsion after PCM non-electrostatic terms =    10879.8930209715 Hartrees.
 Leave Link  301 at Mon Mar  3 13:46:15 2025, MaxMem= 82678120448 cpu:               4.0 elap:               0.2
 (Enter /sysapps/ubuntu-applications/gaussian-new/avx/g16/l302.exe)
 NPDir=0 NMtPBC=     1 NCelOv=     1 NCel=       1 NClECP=     1 NCelD=      1
         NCelK=      1 NCelE2=     1 NClLst=     1 CellRange=     0.0.
 One-electron integrals computed using PRISM.
 One-electron integral symmetry used in STVInt
   1 Symmetry operations used in ECPInt.
 ECPInt:  NShTT=   73153 NPrTT=  279412 LenC2=   57431 LenP2D=  134553.
 LDataN:  DoStor=T MaxTD1= 9 Len=  602
 NBasis=   888 RedAO= T EigKep=  2.14D-04  NBF=   888
 NBsUse=   888 1.00D-06 EigRej= -1.00D+00 NBFU=   888
 Precomputing XC quadrature grid using
 IXCGrd= 4 IRadAn=           5 IRanWt=          -1 IRanGd=           0 AccXCQ= 0.00D+00.
 Defaulting to unpruned grid for atomic number  70.
 Generated NRdTot=       0 NPtTot=           0 NUsed=           0 NTot=          32
 NSgBfM=   918   918   918   918   918 MxSgAt=    67 MxSgA2=    67.
 Leave Link  302 at Mon Mar  3 13:46:18 2025, MaxMem= 82678120448 cpu:              63.0 elap:               2.7
 (Enter /sysapps/ubuntu-applications/gaussian-new/avx/g16/l303.exe)
 DipDrv:  MaxL=1.
 Leave Link  303 at Mon Mar  3 13:46:19 2025, MaxMem= 82678120448 cpu:              11.8 elap:               0.6
 (Enter /sysapps/ubuntu-applications/gaussian-new/avx/g16/l401.exe)
 ExpMin= 2.50D-02 ExpMax= 9.20D+04 ExpMxC= 1.38D+04 IAcc=3 IRadAn=         5 AccDes= 0.00D+00
 Harris functional with IExCor= 1009 and IRadAn=       5 diagonalized for initial guess.
 HarFok:  IExCor= 1009 AccDes= 0.00D+00 IRadAn=         5 IDoV= 1 UseB2=F ITyADJ=14
 ICtDFT=  3500011 ScaDFX=  1.000000  1.000000  1.000000  1.000000
 Defaulting to unpruned grid for atomic number  70.
 FoFCou: FMM=F IPFlag=           0 FMFlag=      100000 FMFlg1=        2001
         NFxFlg=           0 DoJE=T BraDBF=F KetDBF=T FulRan=T
         wScrn=  0.000000 ICntrl=       500 IOpCl=  0 I1Cent=   200000004 NGrid=           0
         NMat0=    1 NMatS0=      1 NMatT0=    0 NMatD0=    1 NMtDS0=    0 NMtDT0=    0
 Petite list used in FoFCou.
 Harris En= -5219.42389566386    
 JPrj=0 DoOrth=F DoCkMO=F.
 Initial guess <Sx>= 0.0000 <Sy>= 0.0000 <Sz>= 0.5000 <S**2>= 0.7500 S= 0.5000
 Leave Link  401 at Mon Mar  3 13:46:26 2025, MaxMem= 82678120448 cpu:             168.8 elap:               7.1
 (Enter /sysapps/ubuntu-applications/gaussian-new/avx/g16/l502.exe)
 Integral symmetry usage will be decided dynamically.
 UHF open shell SCF:
 Using DIIS extrapolation, IDIIS=  1040.
 NGot= 82678120448 LenX= 82676240387 LenY= 82675315905
 Requested convergence on RMS density matrix=1.00D-08 within 500 cycles.
 Requested convergence on MAX density matrix=1.00D-06.
 Requested convergence on             energy=1.00D-06.
 No special actions if energy rises.
 Fock matrices will be formed incrementally for  20 cycles.

 Cycle   1  Pass 1  IDiag  1:
 FoFJK:  IHMeth= 1 ICntrl=       0 DoSepK=F KAlg= 0 I1Cent=           0 FoldK=F
 IRaf= 890000000 NMat=       1 IRICut=       1 DoRegI=T DoRafI=F ISym2E= 0 IDoP0=0 IntGTp=1.
 FoFCou: FMM=T IPFlag=           0 FMFlag=      100000 FMFlg1=        2001
         NFxFlg=           0 DoJE=F BraDBF=F KetDBF=F FulRan=T
         wScrn=  0.000000 ICntrl=         0 IOpCl=  1 I1Cent=           0 NGrid=           0
         NMat0=    1 NMatS0=      1 NMatT0=    0 NMatD0=    1 NMtDS0=    0 NMtDT0=    0
 Symmetry not used in FoFCou.
 FMM levels:  10  Number of levels for PrismC:   9
 Defaulting to unpruned grid for atomic number  70.
 Defaulting to unpruned grid for atomic number  70.
 Defaulting to unpruned grid for atomic number  70.
 Defaulting to unpruned grid for atomic number  70.
 Defaulting to unpruned grid for atomic number  70.
 Defaulting to unpruned grid for atomic number  70.
 Defaulting to unpruned grid for atomic number  70.
 Defaulting to unpruned grid for atomic number  70.
 Defaulting to unpruned grid for atomic number  70.
 Defaulting to unpruned grid for atomic number  70.
 Defaulting to unpruned grid for atomic number  70.
 Defaulting to unpruned grid for atomic number  70.
 Defaulting to unpruned grid for atomic number  70.
 Defaulting to unpruned grid for atomic number  70.
 Defaulting to unpruned grid for atomic number  70.
 Defaulting to unpruned grid for atomic number  70.
 Defaulting to unpruned grid for atomic number  70.
 Defaulting to unpruned grid for atomic number  70.
 Defaulting to unpruned grid for atomic number  70.
 Defaulting to unpruned grid for atomic number  70.
 Defaulting to unpruned grid for atomic number  70.
 Defaulting to unpruned grid for atomic number  70.
 Defaulting to unpruned grid for atomic number  70.
 Defaulting to unpruned grid for atomic number  70.
 Inv3:  Mode=1 IEnd=    69206427.
 Iteration    1 A*A^-1 deviation from unit magnitude is 7.77D-15 for   4795.
 Iteration    1 A*A^-1 deviation from orthogonality  is 9.01D-15 for   4786   4593.
 Iteration    1 A^-1*A deviation from unit magnitude is 7.77D-15 for   4795.
 Iteration    1 A^-1*A deviation from orthogonality  is 3.33D-15 for   4775   4147.
 E= -5213.62240211746    
 DIIS: error= 2.26D-01 at cycle   1 NSaved=   1.
 NSaved= 1 IEnMin= 1 EnMin= -5213.62240211746     IErMin= 1 ErrMin= 2.26D-01
 ErrMax= 2.26D-01  0.00D+00 EMaxC= 1.00D-01 BMatC= 1.38D+02 BMatP= 1.38D+02
 IDIUse=3 WtCom= 0.00D+00 WtEn= 1.00D+00
 Coeff-Com:  0.100D+01
 Coeff-En:   0.100D+01
 Coeff:      0.100D+01
 Gap=     0.298 Goal=   None    Shift=    0.000
 Gap=     0.076 Goal=   None    Shift=    0.000
 GapD=    0.076 DampG=0.500 DampE=0.125 DampFc=0.1250 IDamp=-1.
 Damping current iteration by 1.25D-01
 RMSDP=1.94D-02 MaxDP=3.25D+00              OVMax= 9.89D-01

 Cycle   2  Pass 1  IDiag  1:
 RMSU=  2.42D-03    CP:  9.95D-01
 E= -5215.05919208422     Delta-E=       -1.436789966758 Rises=F Damp=T
 DIIS: error= 8.44D-02 at cycle   2 NSaved=   2.
 NSaved= 2 IEnMin= 2 EnMin= -5215.05919208422     IErMin= 2 ErrMin= 8.44D-02
 ErrMax= 8.44D-02  0.00D+00 EMaxC= 1.00D-01 BMatC= 2.71D+01 BMatP= 1.38D+02
 IDIUse=3 WtCom= 1.56D-01 WtEn= 8.44D-01
 Coeff-Com: -0.615D+00 0.161D+01
 Coeff-En:   0.240D+00 0.760D+00
 Coeff:      0.107D+00 0.893D+00
 Gap=    -0.062 Goal=   None    Shift=    0.000
 Gap=     0.140 Goal=   None    Shift=    0.000
 RMSDP=3.63D-03 MaxDP=5.12D-01 DE=-1.44D+00 OVMax= 9.40D-01

 Cycle   3  Pass 1  IDiag  1:
 RMSU=  3.22D-03    CP:  9.71D-01  3.17D-01
 E= -5215.25953685040     Delta-E=       -0.200344766175 Rises=F Damp=F
 DIIS: error= 1.27D-01 at cycle   3 NSaved=   3.
 NSaved= 3 IEnMin= 3 EnMin= -5215.25953685040     IErMin= 2 ErrMin= 8.44D-02
 ErrMax= 1.27D-01  0.00D+00 EMaxC= 1.00D-01 BMatC= 5.80D+01 BMatP= 2.71D+01
 IDIUse=2 WtCom= 0.00D+00 WtEn= 1.00D+00
 EnCoef did     4 forward-backward iterations
 Coeff-En:   0.306D+00 0.156D+00 0.538D+00
 Coeff:      0.306D+00 0.156D+00 0.538D+00
 Gap=     0.609 Goal=   None    Shift=    0.000
 Gap=     0.607 Goal=   None    Shift=    0.000
 RMSDP=7.48D-03 MaxDP=1.32D+00 DE=-2.00D-01 OVMax= 1.00D+00

 Cycle   4  Pass 1  IDiag  1:
 RMSU=  5.86D-03    CP:  9.63D-01  1.94D+00  2.36D-01
 E= -5103.02115040719     Delta-E=      112.238386443203 Rises=F Damp=F
 DIIS: error= 6.11D-01 at cycle   4 NSaved=   4.
 NSaved= 4 IEnMin= 3 EnMin= -5215.25953685040     IErMin= 2 ErrMin= 8.44D-02
 ErrMax= 6.11D-01  0.00D+00 EMaxC= 1.00D-01 BMatC= 6.98D+02 BMatP= 2.71D+01
 IDIUse=2 WtCom= 0.00D+00 WtEn= 1.00D+00
 EnCoef did   100 forward-backward iterations
 Coeff-En:   0.441D+00 0.158D-01 0.504D+00 0.388D-01
 Coeff:      0.441D+00 0.158D-01 0.504D+00 0.388D-01
 Gap=     0.014 Goal=   None    Shift=    0.000
 Gap=     0.016 Goal=   None    Shift=    0.000
 RMSDP=7.08D-03 MaxDP=1.31D+00 DE= 1.12D+02 OVMax= 9.99D-01

 Cycle   5  Pass 1  IDiag  1:
 RMSU=  1.48D-03    CP:  9.77D-01  2.59D-01  4.59D-01  5.30D-02
 E= -5217.94681030746     Delta-E=     -114.925659900267 Rises=F Damp=F
 DIIS: error= 4.84D-02 at cycle   5 NSaved=   5.
 NSaved= 5 IEnMin= 5 EnMin= -5217.94681030746     IErMin= 5 ErrMin= 4.84D-02
 ErrMax= 4.84D-02  0.00D+00 EMaxC= 1.00D-01 BMatC= 7.45D+00 BMatP= 2.71D+01
 IDIUse=3 WtCom= 5.16D-01 WtEn= 4.84D-01
 Coeff-Com:  0.279D+00-0.192D-01 0.277D+00 0.767D-02 0.456D+00
 Coeff-En:   0.999D-01 0.000D+00 0.000D+00 0.000D+00 0.900D+00
 Coeff:      0.192D+00-0.993D-02 0.143D+00 0.396D-02 0.671D+00
 Gap=     0.785 Goal=   None    Shift=    0.000
 Gap=     0.149 Goal=   None    Shift=    0.000
 RMSDP=1.49D-03 MaxDP=3.00D-01 DE=-1.15D+02 OVMax= 7.41D-01

 Cycle   6  Pass 1  IDiag  1:
 RMSU=  6.14D-04    CP:  9.84D-01  1.73D-01  5.46D-01  4.76D-03  1.40D-01
 E= -5217.83002343689     Delta-E=        0.116786870567 Rises=F Damp=F
 DIIS: error= 6.88D-02 at cycle   6 NSaved=   6.
 NSaved= 6 IEnMin= 5 EnMin= -5217.94681030746     IErMin= 5 ErrMin= 4.84D-02
 ErrMax= 6.88D-02  0.00D+00 EMaxC= 1.00D-01 BMatC= 1.43D+01 BMatP= 7.45D+00
 IDIUse=2 WtCom= 0.00D+00 WtEn= 1.00D+00
 Coeff-En:   0.000D+00 0.000D+00 0.000D+00 0.000D+00 0.528D+00 0.472D+00
 Coeff:      0.000D+00 0.000D+00 0.000D+00 0.000D+00 0.528D+00 0.472D+00
 Gap=     0.212 Goal=   None    Shift=    0.000
 Gap=     0.095 Goal=   None    Shift=    0.000
 RMSDP=5.90D-04 MaxDP=9.15D-02 DE= 1.17D-01 OVMax= 5.78D-02

 Cycle   7  Pass 1  IDiag  1:
 RMSU=  3.96D-04    CP:  9.79D-01  1.96D-01  5.11D-01  1.93D-02  3.70D-01
                    CP:  6.45D-01
 E= -5218.50213557996     Delta-E=       -0.672112143062 Rises=F Damp=F
 DIIS: error= 9.01D-03 at cycle   7 NSaved=   7.
 NSaved= 7 IEnMin= 7 EnMin= -5218.50213557996     IErMin= 7 ErrMin= 9.01D-03
 ErrMax= 9.01D-03  0.00D+00 EMaxC= 1.00D-01 BMatC= 3.94D-01 BMatP= 7.45D+00
 IDIUse=3 WtCom= 9.10D-01 WtEn= 9.01D-02
 Coeff-Com: -0.126D+00 0.188D+00-0.111D-01-0.503D-02 0.194D+00 0.189D+00
 Coeff-Com:  0.572D+00
 Coeff-En:   0.000D+00 0.000D+00 0.000D+00 0.000D+00 0.151D+00 0.000D+00
 Coeff-En:   0.849D+00
 Coeff:     -0.115D+00 0.171D+00-0.101D-01-0.458D-02 0.190D+00 0.172D+00
 Coeff:      0.597D+00
 Gap=     0.207 Goal=   None    Shift=    0.000
 Gap=     0.164 Goal=   None    Shift=    0.000
 RMSDP=1.95D-04 MaxDP=1.89D-02 DE=-6.72D-01 OVMax= 1.58D-02

 Cycle   8  Pass 1  IDiag  1:
 RMSU=  1.67D-04    CP:  9.80D-01  2.04D-01  5.08D-01  2.12D-02  4.24D-01
                    CP:  5.71D-01  1.07D+00
 E= -5218.50359904961     Delta-E=       -0.001463469654 Rises=F Damp=F
 DIIS: error= 1.62D-02 at cycle   8 NSaved=   8.
 NSaved= 8 IEnMin= 8 EnMin= -5218.50359904961     IErMin= 7 ErrMin= 9.01D-03
 ErrMax= 1.62D-02  0.00D+00 EMaxC= 1.00D-01 BMatC= 9.11D-01 BMatP= 3.94D-01
 IDIUse=2 WtCom= 0.00D+00 WtEn= 1.00D+00
 EnCoef did    12 forward-backward iterations
 Coeff-En:   0.000D+00 0.000D+00 0.000D+00 0.000D+00 0.157D+00 0.000D+00
 Coeff-En:   0.138D+00 0.705D+00
 Coeff:      0.000D+00 0.000D+00 0.000D+00 0.000D+00 0.157D+00 0.000D+00
 Coeff:      0.138D+00 0.705D+00
 Gap=     0.205 Goal=   None    Shift=    0.000
 Gap=     0.115 Goal=   None    Shift=    0.000
 RMSDP=9.84D-04 MaxDP=2.40D-01 DE=-1.46D-03 OVMax= 9.99D-01

 Cycle   9  Pass 1  IDiag  1:
 RMSU=  3.54D-04    CP:  9.76D-01  2.48D-01  5.00D-01  4.49D-02  8.72D-01
                    CP:  2.81D-01 -2.02D-01 -7.63D-01
 E= -5217.94441577175     Delta-E=        0.559183277861 Rises=F Damp=F
 DIIS: error= 5.61D-02 at cycle   9 NSaved=   9.
 NSaved= 9 IEnMin= 8 EnMin= -5218.50359904961     IErMin= 7 ErrMin= 9.01D-03
 ErrMax= 5.61D-02  0.00D+00 EMaxC= 1.00D-01 BMatC= 1.04D+01 BMatP= 3.94D-01
 IDIUse=2 WtCom= 0.00D+00 WtEn= 1.00D+00
 Coeff-En:   0.000D+00 0.000D+00 0.000D+00 0.000D+00 0.000D+00 0.000D+00
 Coeff-En:   0.000D+00 0.820D+00 0.180D+00
 Coeff:      0.000D+00 0.000D+00 0.000D+00 0.000D+00 0.000D+00 0.000D+00
 Coeff:      0.000D+00 0.820D+00 0.180D+00
 Gap=     0.173 Goal=   None    Shift=    0.000
 Gap=    -0.020 Goal=   None    Shift=    0.000
 RMSDP=9.39D-04 MaxDP=2.27D-01 DE= 5.59D-01 OVMax= 9.95D-01

 Cycle  10  Pass 1  IDiag  1:
 RMSU=  1.53D-04    CP:  9.78D-01  2.17D-01  4.87D-01  2.63D-02  5.10D-01
                    CP:  6.04D-01  1.31D+00  7.76D-01  1.61D-01
 E= -5218.55407532897     Delta-E=       -0.609659557218 Rises=F Damp=F
 DIIS: error= 4.26D-03 at cycle  10 NSaved=  10.
 NSaved=10 IEnMin=10 EnMin= -5218.55407532897     IErMin=10 ErrMin= 4.26D-03
 ErrMax= 4.26D-03  0.00D+00 EMaxC= 1.00D-01 BMatC= 6.59D-02 BMatP= 3.94D-01
 IDIUse=3 WtCom= 9.57D-01 WtEn= 4.26D-02
 Coeff-Com: -0.137D-01 0.225D-01-0.303D-02-0.249D-03-0.957D-01-0.402D-01
 Coeff-Com: -0.383D+00 0.652D+00 0.108D+00 0.754D+00
 Coeff-En:   0.000D+00 0.000D+00 0.000D+00 0.000D+00 0.000D+00 0.000D+00
 Coeff-En:   0.000D+00 0.000D+00 0.000D+00 0.100D+01
 Coeff:     -0.131D-01 0.215D-01-0.290D-02-0.238D-03-0.916D-01-0.385D-01
 Coeff:     -0.367D+00 0.624D+00 0.104D+00 0.764D+00
 Gap=     0.180 Goal=   None    Shift=    0.000
 Gap=     0.094 Goal=   None    Shift=    0.000
 RMSDP=1.10D-04 MaxDP=8.91D-03 DE=-6.10D-01 OVMax= 1.25D-02

 Cycle  11  Pass 1  IDiag  1:
 RMSU=  5.34D-05    CP:  9.78D-01  2.16D-01  4.88D-01  2.58D-02  5.16D-01
                    CP:  5.83D-01  1.32D+00  1.26D+00  2.64D-01  7.73D-01
 E= -5218.55777728098     Delta-E=       -0.003701952008 Rises=F Damp=F
 DIIS: error= 2.28D-03 at cycle  11 NSaved=  11.
 NSaved=11 IEnMin=11 EnMin= -5218.55777728098     IErMin=11 ErrMin= 2.28D-03
 ErrMax= 2.28D-03  0.00D+00 EMaxC= 1.00D-01 BMatC= 1.94D-02 BMatP= 6.59D-02
 IDIUse=3 WtCom= 9.77D-01 WtEn= 2.28D-02
 Coeff-Com: -0.540D-02 0.695D-02 0.819D-03-0.156D-03-0.207D-01-0.181D-03
 Coeff-Com: -0.183D+00 0.151D+00 0.266D-01 0.382D+00 0.642D+00
 Coeff-En:   0.000D+00 0.000D+00 0.000D+00 0.000D+00 0.000D+00 0.000D+00
 Coeff-En:   0.000D+00 0.000D+00 0.000D+00 0.862D-01 0.914D+00
 Coeff:     -0.528D-02 0.679D-02 0.800D-03-0.152D-03-0.203D-01-0.177D-03
 Coeff:     -0.179D+00 0.147D+00 0.260D-01 0.376D+00 0.648D+00
 Gap=     0.167 Goal=   None    Shift=    0.000
 Gap=     0.087 Goal=   None    Shift=    0.000
 RMSDP=3.76D-05 MaxDP=3.99D-03 DE=-3.70D-03 OVMax= 3.87D-03

 Cycle  12  Pass 1  IDiag  1:
 RMSU=  2.07D-05    CP:  9.78D-01  2.19D-01  4.88D-01  2.66D-02  5.26D-01
                    CP:  5.82D-01  1.34D+00  1.28D+00  2.63D-01  9.14D-01
                    CP:  7.77D-01
 E= -5218.55891218000     Delta-E=       -0.001134899023 Rises=F Damp=F
 DIIS: error= 4.24D-04 at cycle  12 NSaved=  12.
 NSaved=12 IEnMin=12 EnMin= -5218.55891218000     IErMin=12 ErrMin= 4.24D-04
 ErrMax= 4.24D-04  0.00D+00 EMaxC= 1.00D-01 BMatC= 1.03D-03 BMatP= 1.94D-02
 IDIUse=3 WtCom= 9.96D-01 WtEn= 4.24D-03
 Coeff-Com: -0.188D-02 0.154D-02 0.524D-03-0.831D-04 0.136D-02 0.577D-02
 Coeff-Com: -0.523D-01-0.120D-01 0.264D-02 0.112D+00 0.379D+00 0.563D+00
 Coeff-En:   0.000D+00 0.000D+00 0.000D+00 0.000D+00 0.000D+00 0.000D+00
 Coeff-En:   0.000D+00 0.000D+00 0.000D+00 0.000D+00 0.000D+00 0.100D+01
 Coeff:     -0.187D-02 0.154D-02 0.521D-03-0.827D-04 0.135D-02 0.574D-02
 Coeff:     -0.521D-01-0.119D-01 0.263D-02 0.112D+00 0.378D+00 0.565D+00
 Gap=     0.166 Goal=   None    Shift=    0.000
 Gap=     0.087 Goal=   None    Shift=    0.000
 RMSDP=1.24D-05 MaxDP=1.58D-03 DE=-1.13D-03 OVMax= 2.04D-03

 Cycle  13  Pass 1  IDiag  1:
 RMSU=  9.33D-06    CP:  9.78D-01  2.19D-01  4.88D-01  2.66D-02  5.27D-01
                    CP:  5.84D-01  1.34D+00  1.29D+00  2.70D-01  9.33D-01
                    CP:  8.58D-01  7.61D-01
 E= -5218.55901946646     Delta-E=       -0.000107286463 Rises=F Damp=F
 DIIS: error= 1.54D-04 at cycle  13 NSaved=  13.
 NSaved=13 IEnMin=13 EnMin= -5218.55901946646     IErMin=13 ErrMin= 1.54D-04
 ErrMax= 1.54D-04  0.00D+00 EMaxC= 1.00D-01 BMatC= 1.39D-04 BMatP= 1.03D-03
 IDIUse=3 WtCom= 9.98D-01 WtEn= 1.54D-03
 Coeff-Com:  0.693D-04-0.158D-03 0.442D-03-0.195D-04 0.342D-02 0.251D-02
 Coeff-Com: -0.309D-02-0.299D-01-0.186D-02 0.225D-02 0.922D-01 0.304D+00
 Coeff-Com:  0.630D+00
 Coeff-En:   0.000D+00 0.000D+00 0.000D+00 0.000D+00 0.000D+00 0.000D+00
 Coeff-En:   0.000D+00 0.000D+00 0.000D+00 0.000D+00 0.000D+00 0.000D+00
 Coeff-En:   0.100D+01
 Coeff:      0.692D-04-0.158D-03 0.441D-03-0.194D-04 0.341D-02 0.250D-02
 Coeff:     -0.309D-02-0.299D-01-0.186D-02 0.225D-02 0.920D-01 0.304D+00
 Coeff:      0.630D+00
 Gap=     0.164 Goal=   None    Shift=    0.000
 Gap=     0.087 Goal=   None    Shift=    0.000
 RMSDP=6.42D-06 MaxDP=7.10D-04 DE=-1.07D-04 OVMax= 1.47D-03

 Cycle  14  Pass 1  IDiag  1:
 RMSU=  4.22D-06    CP:  9.78D-01  2.19D-01  4.88D-01  2.66D-02  5.28D-01
                    CP:  5.83D-01  1.35D+00  1.29D+00  2.74D-01  9.45D-01
                    CP:  9.04D-01  8.40D-01  8.95D-01
 E= -5218.55903858095     Delta-E=       -0.000019114485 Rises=F Damp=F
 DIIS: error= 3.31D-05 at cycle  14 NSaved=  14.
 NSaved=14 IEnMin=14 EnMin= -5218.55903858095     IErMin=14 ErrMin= 3.31D-05
 ErrMax= 3.31D-05  0.00D+00 EMaxC= 1.00D-01 BMatC= 9.35D-06 BMatP= 1.39D-04
 IDIUse=1 WtCom= 1.00D+00 WtEn= 0.00D+00
 Coeff-Com:  0.749D-03-0.951D-03 0.115D-03 0.166D-04 0.111D-02 0.196D-03
 Coeff-Com:  0.461D-02-0.157D-01-0.688D-03-0.137D-01 0.318D-02 0.954D-01
 Coeff-Com:  0.341D+00 0.585D+00
 Coeff:      0.749D-03-0.951D-03 0.115D-03 0.166D-04 0.111D-02 0.196D-03
 Coeff:      0.461D-02-0.157D-01-0.688D-03-0.137D-01 0.318D-02 0.954D-01
 Coeff:      0.341D+00 0.585D+00
 Gap=     0.163 Goal=   None    Shift=    0.000
 Gap=     0.086 Goal=   None    Shift=    0.000
 RMSDP=2.75D-06 MaxDP=4.02D-04 DE=-1.91D-05 OVMax= 7.92D-04

 Cycle  15  Pass 1  IDiag  1:
 RMSU=  1.66D-06    CP:  9.78D-01  2.19D-01  4.88D-01  2.67D-02  5.29D-01
                    CP:  5.84D-01  1.35D+00  1.29D+00  2.76D-01  9.47D-01
                    CP:  9.13D-01  8.93D-01  1.02D+00  9.01D-01
 E= -5218.55904116836     Delta-E=       -0.000002587411 Rises=F Damp=F
 DIIS: error= 4.71D-05 at cycle  15 NSaved=  15.
 NSaved=15 IEnMin=15 EnMin= -5218.55904116836     IErMin=14 ErrMin= 3.31D-05
 ErrMax= 4.71D-05  0.00D+00 EMaxC= 1.00D-01 BMatC= 9.07D-06 BMatP= 9.35D-06
 IDIUse=1 WtCom= 1.00D+00 WtEn= 0.00D+00
 Coeff-Com:  0.422D-03-0.514D-03 0.194D-04 0.128D-04 0.305D-04-0.414D-03
 Coeff-Com:  0.232D-02-0.207D-03-0.136D-03-0.638D-02-0.972D-02-0.469D-02
 Coeff-Com:  0.231D-01 0.217D+00 0.779D+00
 Coeff:      0.422D-03-0.514D-03 0.194D-04 0.128D-04 0.305D-04-0.414D-03
 Coeff:      0.232D-02-0.207D-03-0.136D-03-0.638D-02-0.972D-02-0.469D-02
 Coeff:      0.231D-01 0.217D+00 0.779D+00
 Gap=     0.163 Goal=   None    Shift=    0.000
 Gap=     0.087 Goal=   None    Shift=    0.000
 RMSDP=1.54D-06 MaxDP=2.13D-04 DE=-2.59D-06 OVMax= 4.80D-04

 Cycle  16  Pass 1  IDiag  1:
 RMSU=  7.82D-07    CP:  9.78D-01  2.19D-01  4.88D-01  2.67D-02  5.29D-01
                    CP:  5.83D-01  1.35D+00  1.29D+00  2.76D-01  9.47D-01
                    CP:  9.17D-01  9.17D-01  1.11D+00  1.11D+00  1.09D+00
 E= -5218.55904211303     Delta-E=       -0.000000944668 Rises=F Damp=F
 DIIS: error= 3.17D-05 at cycle  16 NSaved=  16.
 NSaved=16 IEnMin=16 EnMin= -5218.55904211303     IErMin=16 ErrMin= 3.17D-05
 ErrMax= 3.17D-05  0.00D+00 EMaxC= 1.00D-01 BMatC= 4.17D-06 BMatP= 9.07D-06
 IDIUse=1 WtCom= 1.00D+00 WtEn= 0.00D+00
 Coeff-Com: -0.328D-04 0.271D-04-0.315D-04 0.812D-06-0.142D-03-0.314D-03
 Coeff-Com:  0.338D-03 0.573D-02-0.445D-04-0.295D-03-0.426D-02-0.283D-01
 Coeff-Com: -0.963D-01-0.861D-01 0.410D+00 0.799D+00
 Coeff:     -0.328D-04 0.271D-04-0.315D-04 0.812D-06-0.142D-03-0.314D-03
 Coeff:      0.338D-03 0.573D-02-0.445D-04-0.295D-03-0.426D-02-0.283D-01
 Coeff:     -0.963D-01-0.861D-01 0.410D+00 0.799D+00
 Gap=     0.164 Goal=   None    Shift=    0.000
 Gap=     0.087 Goal=   None    Shift=    0.000
 RMSDP=1.21D-06 MaxDP=1.27D-04 DE=-9.45D-07 OVMax= 3.93D-04

 Cycle  17  Pass 1  IDiag  1:
 RMSU=  5.11D-07    CP:  9.78D-01  2.19D-01  4.88D-01  2.67D-02  5.29D-01
                    CP:  5.84D-01  1.35D+00  1.29D+00  2.76D-01  9.45D-01
                    CP:  9.22D-01  9.30D-01  1.15D+00  1.24D+00  1.44D+00
                    CP:  1.11D+00
 E= -5218.55904266875     Delta-E=       -0.000000555725 Rises=F Damp=F
 DIIS: error= 3.20D-06 at cycle  17 NSaved=  17.
 NSaved=17 IEnMin=17 EnMin= -5218.55904266875     IErMin=17 ErrMin= 3.20D-06
 ErrMax= 3.20D-06  0.00D+00 EMaxC= 1.00D-01 BMatC= 1.53D-07 BMatP= 4.17D-06
 IDIUse=1 WtCom= 1.00D+00 WtEn= 0.00D+00
 Coeff-Com: -0.123D-03 0.143D-03-0.320D-04-0.288D-05-0.940D-04-0.733D-04
 Coeff-Com:  0.386D-05 0.279D-02 0.307D-04 0.724D-03-0.641D-03-0.135D-01
 Coeff-Com: -0.515D-01-0.960D-01-0.386D-02 0.394D+00 0.768D+00
 Coeff:     -0.123D-03 0.143D-03-0.320D-04-0.288D-05-0.940D-04-0.733D-04
 Coeff:      0.386D-05 0.279D-02 0.307D-04 0.724D-03-0.641D-03-0.135D-01
 Coeff:     -0.515D-01-0.960D-01-0.386D-02 0.394D+00 0.768D+00
 Gap=     0.164 Goal=   None    Shift=    0.000
 Gap=     0.087 Goal=   None    Shift=    0.000
 RMSDP=6.12D-07 MaxDP=6.76D-05 DE=-5.56D-07 OVMax= 2.01D-04

 Cycle  18  Pass 1  IDiag  1:
 RMSU=  2.40D-07    CP:  9.78D-01  2.19D-01  4.88D-01  2.67D-02  5.29D-01
                    CP:  5.84D-01  1.35D+00  1.29D+00  2.76D-01  9.44D-01
                    CP:  9.24D-01  9.36D-01  1.18D+00  1.31D+00  1.59D+00
                    CP:  1.45D+00  1.03D+00
 E= -5218.55904273826     Delta-E=       -0.000000069513 Rises=F Damp=F
 DIIS: error= 7.29D-06 at cycle  18 NSaved=  18.
 NSaved=18 IEnMin=18 EnMin= -5218.55904273826     IErMin=17 ErrMin= 3.20D-06
 ErrMax= 7.29D-06  0.00D+00 EMaxC= 1.00D-01 BMatC= 2.18D-07 BMatP= 1.53D-07
 IDIUse=1 WtCom= 1.00D+00 WtEn= 0.00D+00
 Coeff-Com: -0.615D-04 0.777D-04-0.153D-04-0.168D-05-0.480D-04 0.304D-05
 Coeff-Com:  0.712D-04 0.406D-03 0.380D-04 0.211D-03-0.651D-03-0.453D-02
 Coeff-Com: -0.136D-01-0.317D-01-0.392D-01 0.643D-01 0.375D+00 0.649D+00
 Coeff:     -0.615D-04 0.777D-04-0.153D-04-0.168D-05-0.480D-04 0.304D-05
 Coeff:      0.712D-04 0.406D-03 0.380D-04 0.211D-03-0.651D-03-0.453D-02
 Coeff:     -0.136D-01-0.317D-01-0.392D-01 0.643D-01 0.375D+00 0.649D+00
 Gap=     0.164 Goal=   None    Shift=    0.000
 Gap=     0.087 Goal=   None    Shift=    0.000
 RMSDP=1.99D-07 MaxDP=2.32D-05 DE=-6.95D-08 OVMax= 6.63D-05

 Cycle  19  Pass 1  IDiag  1:
 RMSU=  1.06D-07    CP:  9.78D-01  2.19D-01  4.88D-01  2.67D-02  5.29D-01
                    CP:  5.84D-01  1.35D+00  1.29D+00  2.76D-01  9.44D-01
                    CP:  9.24D-01  9.38D-01  1.18D+00  1.32D+00  1.63D+00
                    CP:  1.54D+00  1.21D+00  9.05D-01
 E= -5218.55904275734     Delta-E=       -0.000000019074 Rises=F Damp=F
 DIIS: error= 4.74D-06 at cycle  19 NSaved=  19.
 NSaved=19 IEnMin=19 EnMin= -5218.55904275734     IErMin=17 ErrMin= 3.20D-06
 ErrMax= 4.74D-06  0.00D+00 EMaxC= 1.00D-01 BMatC= 8.82D-08 BMatP= 1.53D-07
 IDIUse=1 WtCom= 1.00D+00 WtEn= 0.00D+00
 Coeff-Com: -0.325D-05 0.816D-05 0.351D-06-0.864D-07-0.284D-05 0.255D-04
 Coeff-Com:  0.356D-04-0.567D-03 0.414D-05-0.445D-04-0.641D-03-0.234D-03
 Coeff-Com:  0.367D-02 0.906D-02 0.348D-02-0.688D-01-0.407D-01 0.266D+00
 Coeff-Com:  0.829D+00
 Coeff:     -0.325D-05 0.816D-05 0.351D-06-0.864D-07-0.284D-05 0.255D-04
 Coeff:      0.356D-04-0.567D-03 0.414D-05-0.445D-04-0.641D-03-0.234D-03
 Coeff:      0.367D-02 0.906D-02 0.348D-02-0.688D-01-0.407D-01 0.266D+00
 Coeff:      0.829D+00
 Gap=     0.164 Goal=   None    Shift=    0.000
 Gap=     0.087 Goal=   None    Shift=    0.000
 RMSDP=1.33D-07 MaxDP=1.64D-05 DE=-1.91D-08 OVMax= 4.26D-05

 Cycle  20  Pass 1  IDiag  1:
 RMSU=  6.00D-08    CP:  9.78D-01  2.19D-01  4.88D-01  2.67D-02  5.29D-01
                    CP:  5.84D-01  1.35D+00  1.29D+00  2.76D-01  9.44D-01
                    CP:  9.24D-01  9.38D-01  1.18D+00  1.33D+00  1.64D+00
                    CP:  1.58D+00  1.30D+00  1.15D+00  1.10D+00
 E= -5218.55904276579     Delta-E=       -0.000000008451 Rises=F Damp=F
 DIIS: error= 6.79D-07 at cycle  20 NSaved=  20.
 NSaved=20 IEnMin=20 EnMin= -5218.55904276579     IErMin=20 ErrMin= 6.79D-07
 ErrMax= 6.79D-07  0.00D+00 EMaxC= 1.00D-01 BMatC= 3.42D-09 BMatP= 8.82D-08
 IDIUse=1 WtCom= 1.00D+00 WtEn= 0.00D+00
 Coeff-Com:  0.819D-05-0.899D-05 0.280D-05 0.256D-06 0.242D-05 0.157D-04
 Coeff-Com: -0.270D-04-0.311D-03-0.419D-05 0.389D-04-0.147D-03 0.456D-03
 Coeff-Com:  0.299D-02 0.808D-02 0.115D-01-0.418D-01-0.981D-01-0.359D-01
 Coeff-Com:  0.405D+00 0.748D+00
 Coeff:      0.819D-05-0.899D-05 0.280D-05 0.256D-06 0.242D-05 0.157D-04
 Coeff:     -0.270D-04-0.311D-03-0.419D-05 0.389D-04-0.147D-03 0.456D-03
 Coeff:      0.299D-02 0.808D-02 0.115D-01-0.418D-01-0.981D-01-0.359D-01
 Coeff:      0.405D+00 0.748D+00
 Gap=     0.164 Goal=   None    Shift=    0.000
 Gap=     0.087 Goal=   None    Shift=    0.000
 RMSDP=6.65D-08 MaxDP=1.24D-05 DE=-8.45D-09 OVMax= 2.00D-05

 Cycle  21  Pass 1  IDiag  1:
 Restarting incremental Fock formation.
 E= -5218.55904276703     Delta-E=       -0.000000001244 Rises=F Damp=F
 DIIS: error= 6.13D-07 at cycle  21 NSaved=  20.
 NSaved=20 IEnMin=20 EnMin= -5218.55904276703     IErMin=20 ErrMin= 6.13D-07
 ErrMax= 6.13D-07  0.00D+00 EMaxC= 1.00D-01 BMatC= 1.76D-09 BMatP= 3.42D-09
 IDIUse=1 WtCom= 1.00D+00 WtEn= 0.00D+00
 Coeff-Com:  0.152D-05-0.267D-05 0.340D-06-0.493D-06 0.535D-05-0.289D-04
 Coeff-Com: -0.328D-04-0.407D-06 0.690D-04 0.131D-03 0.367D-03 0.802D-03
 Coeff-Com:  0.115D-02 0.115D-02-0.767D-02-0.277D-01-0.418D-01 0.449D-01
 Coeff-Com:  0.316D+00 0.713D+00
 Coeff:      0.152D-05-0.267D-05 0.340D-06-0.493D-06 0.535D-05-0.289D-04
 Coeff:     -0.328D-04-0.407D-06 0.690D-04 0.131D-03 0.367D-03 0.802D-03
 Coeff:      0.115D-02 0.115D-02-0.767D-02-0.277D-01-0.418D-01 0.449D-01
 Coeff:      0.316D+00 0.713D+00
 Gap=     0.164 Goal=   None    Shift=    0.000
 Gap=     0.087 Goal=   None    Shift=    0.000
 RMSDP=2.85D-08 MaxDP=4.00D-06 DE=-1.24D-09 OVMax= 1.09D-05

 Cycle  22  Pass 1  IDiag  1:
 RMSU=  2.85D-08    CP:  1.00D+00
 E= -5218.55904276726     Delta-E=       -0.000000000231 Rises=F Damp=F
 DIIS: error= 3.10D-07 at cycle  22 NSaved=  20.
 NSaved=20 IEnMin=20 EnMin= -5218.55904276726     IErMin=20 ErrMin= 3.10D-07
 ErrMax= 3.10D-07  0.00D+00 EMaxC= 1.00D-01 BMatC= 4.47D-10 BMatP= 1.76D-09
 IDIUse=1 WtCom= 1.00D+00 WtEn= 0.00D+00
 Coeff-Com: -0.269D-06-0.169D-06-0.807D-06-0.404D-05-0.695D-05 0.791D-04
 Coeff-Com:  0.117D-05 0.471D-05 0.109D-03 0.175D-03 0.167D-04-0.870D-03
 Coeff-Com: -0.377D-02 0.695D-02 0.161D-01-0.571D-02-0.118D+00-0.103D+00
 Coeff-Com:  0.287D+00 0.920D+00
 Coeff:     -0.269D-06-0.169D-06-0.807D-06-0.404D-05-0.695D-05 0.791D-04
 Coeff:      0.117D-05 0.471D-05 0.109D-03 0.175D-03 0.167D-04-0.870D-03
 Coeff:     -0.377D-02 0.695D-02 0.161D-01-0.571D-02-0.118D+00-0.103D+00
 Coeff:      0.287D+00 0.920D+00
 Gap=     0.164 Goal=   None    Shift=    0.000
 Gap=     0.087 Goal=   None    Shift=    0.000
 RMSDP=2.58D-08 MaxDP=4.72D-06 DE=-2.31D-10 OVMax= 1.30D-05

 Cycle  23  Pass 1  IDiag  1:
 RMSU=  1.75D-08    CP:  1.00D+00  1.66D+00
 E= -5218.55904276749     Delta-E=       -0.000000000224 Rises=F Damp=F
 DIIS: error= 8.32D-08 at cycle  23 NSaved=  20.
 NSaved=20 IEnMin=20 EnMin= -5218.55904276749     IErMin=20 ErrMin= 8.32D-08
 ErrMax= 8.32D-08  0.00D+00 EMaxC= 1.00D-01 BMatC= 3.48D-11 BMatP= 4.47D-10
 IDIUse=1 WtCom= 1.00D+00 WtEn= 0.00D+00
 Coeff-Com: -0.293D-06-0.119D-05-0.450D-05 0.603D-05 0.441D-04 0.198D-05
 Coeff-Com: -0.229D-04-0.153D-05-0.612D-04-0.213D-03-0.505D-03-0.164D-02
 Coeff-Com:  0.470D-02 0.133D-01 0.101D-01-0.624D-01-0.120D+00-0.119D+00
 Coeff-Com:  0.361D+00 0.914D+00
 Coeff:     -0.293D-06-0.119D-05-0.450D-05 0.603D-05 0.441D-04 0.198D-05
 Coeff:     -0.229D-04-0.153D-05-0.612D-04-0.213D-03-0.505D-03-0.164D-02
 Coeff:      0.470D-02 0.133D-01 0.101D-01-0.624D-01-0.120D+00-0.119D+00
 Coeff:      0.361D+00 0.914D+00
 Gap=     0.164 Goal=   None    Shift=    0.000
 Gap=     0.087 Goal=   None    Shift=    0.000
 RMSDP=1.62D-08 MaxDP=2.86D-06 DE=-2.24D-10 OVMax= 8.75D-06

 Cycle  24  Pass 1  IDiag  1:
 RMSU=  6.97D-09    CP:  1.00D+00  2.13D+00  1.32D+00
 E= -5218.55904276750     Delta-E=       -0.000000000011 Rises=F Damp=F
 DIIS: error= 4.55D-08 at cycle  24 NSaved=  20.
 NSaved=20 IEnMin=20 EnMin= -5218.55904276750     IErMin=20 ErrMin= 4.55D-08
 ErrMax= 4.55D-08  0.00D+00 EMaxC= 1.00D-01 BMatC= 1.57D-11 BMatP= 3.48D-11
 IDIUse=1 WtCom= 1.00D+00 WtEn= 0.00D+00
 Coeff-Com:  0.281D-06-0.105D-05 0.392D-05 0.297D-05 0.152D-06-0.126D-04
 Coeff-Com: -0.195D-04-0.798D-04-0.151D-03-0.786D-04 0.662D-04 0.101D-02
 Coeff-Com:  0.276D-02 0.557D-02-0.652D-02-0.302D-01-0.129D+00-0.511D-01
 Coeff-Com:  0.450D+00 0.758D+00
 Coeff:      0.281D-06-0.105D-05 0.392D-05 0.297D-05 0.152D-06-0.126D-04
 Coeff:     -0.195D-04-0.798D-04-0.151D-03-0.786D-04 0.662D-04 0.101D-02
 Coeff:      0.276D-02 0.557D-02-0.652D-02-0.302D-01-0.129D+00-0.511D-01
 Coeff:      0.450D+00 0.758D+00
 Gap=     0.164 Goal=   None    Shift=    0.000
 Gap=     0.087 Goal=   None    Shift=    0.000
 RMSDP=7.48D-09 MaxDP=1.19D-06 DE=-1.09D-11 OVMax= 4.10D-06

 Cycle  25  Pass 1  IDiag  1:
 RMSU=  3.58D-09    CP:  1.00D+00  2.31D+00  1.53D+00  1.30D+00
 E= -5218.55904276753     Delta-E=       -0.000000000033 Rises=F Damp=F
 DIIS: error= 2.35D-08 at cycle  25 NSaved=  20.
 NSaved=20 IEnMin=20 EnMin= -5218.55904276753     IErMin=20 ErrMin= 2.35D-08
 ErrMax= 2.35D-08  0.00D+00 EMaxC= 1.00D-01 BMatC= 4.66D-12 BMatP= 1.57D-11
 IDIUse=1 WtCom= 1.00D+00 WtEn= 0.00D+00
 Coeff-Com: -0.204D-06 0.997D-06-0.517D-05 0.131D-06-0.244D-05-0.212D-04
 Coeff-Com: -0.629D-04-0.100D-03 0.653D-04 0.473D-03-0.321D-03-0.131D-02
 Coeff-Com:  0.874D-03 0.115D-01 0.150D-01-0.384D-01-0.133D+00-0.117D-01
 Coeff-Com:  0.424D+00 0.733D+00
 Coeff:     -0.204D-06 0.997D-06-0.517D-05 0.131D-06-0.244D-05-0.212D-04
 Coeff:     -0.629D-04-0.100D-03 0.653D-04 0.473D-03-0.321D-03-0.131D-02
 Coeff:      0.874D-03 0.115D-01 0.150D-01-0.384D-01-0.133D+00-0.117D-01
 Coeff:      0.424D+00 0.733D+00
 Gap=     0.164 Goal=   None    Shift=    0.000
 Gap=     0.087 Goal=   None    Shift=    0.000
 RMSDP=3.80D-09 MaxDP=6.12D-07 DE=-3.27D-11 OVMax= 1.95D-06

 Error on total polarization charges =  0.03108
 SCF Done:  E(UMN15) =  -5218.55904277     A.U. after   25 cycles
            NFock= 25  Conv=0.38D-08     -V/T= 2.0934
 <Sx>= 0.0000 <Sy>= 0.0000 <Sz>= 0.5000 <S**2>= 0.7631 S= 0.5065
 <L.S>=  0.00000000000    
 KE= 4.772778445311D+03 PE=-3.418183447262D+04 EE= 1.331060396357D+04
 SMD-CDS (non-electrostatic) energy       (kcal/mol) =       3.47
 (included in total energy above)
 Annihilation of the first spin contaminant:
 S**2 before annihilation     0.7631,   after     0.7501
 Leave Link  502 at Mon Mar  3 14:12:07 2025, MaxMem= 82678120448 cpu:           35878.2 elap:            1541.5
 (Enter /sysapps/ubuntu-applications/gaussian-new/avx/g16/l801.exe)
 DoSCS=F DFT=T ScalE2(SS,OS)=  1.000000  1.000000
 Range of M.O.s used for correlation:     1   888
 NBasis=   888 NAE=   222 NBE=   221 NFC=     0 NFV=     0
 NROrb=    888 NOA=   222 NOB=   221 NVA=   666 NVB=   667

 **** Warning!!: The largest alpha MO coefficient is  0.12746952D+02


 **** Warning!!: The largest beta MO coefficient is  0.12746952D+02


 **** Warning!!: The smallest beta delta epsilon is  0.87069135D-01

 Leave Link  801 at Mon Mar  3 14:12:08 2025, MaxMem= 82678120448 cpu:               3.8 elap:               0.2
 (Enter /sysapps/ubuntu-applications/gaussian-new/avx/g16/l1101.exe)
 Using compressed storage, NAtomX=    67.
 Will process     68 centers per pass.
   1 Symmetry operations used in ECPInt.
 ECPInt:  NShTT=   73153 NPrTT=  279412 LenC2=   57431 LenP2D=  134553.
 LDataN:  DoStor=T MaxTD1=10 Len=  848
 Leave Link 1101 at Mon Mar  3 14:12:19 2025, MaxMem= 82678120448 cpu:             270.8 elap:              11.4
 (Enter /sysapps/ubuntu-applications/gaussian-new/avx/g16/l1102.exe)
 Symmetrizing basis deriv contribution to polar:
 IMax=3 JMax=2 DiffMx= 0.00D+00
 Leave Link 1102 at Mon Mar  3 14:12:21 2025, MaxMem= 82678120448 cpu:               6.4 elap:               0.4
 (Enter /sysapps/ubuntu-applications/gaussian-new/avx/g16/l1110.exe)
 Forming Gx(P) for the SCF density, NAtomX=    67.
 Integral derivatives from FoFJK, PRISM(SPDF).
 Do as many integral derivatives as possible in FoFJK.
 G2DrvN: MDV=   82678114818.
 G2DrvN: will do    68 centers at a time, making    1 passes.
 Calling FoFCou, ICntrl=  3107 FMM=T I1Cent=   0 AccDes= 0.00D+00.
 FoFJK:  IHMeth= 1 ICntrl=    3107 DoSepK=F KAlg= 0 I1Cent=           0 FoldK=F
 IRaf=         0 NMat=       1 IRICut=       1 DoRegI=T DoRafI=F ISym2E= 0 IDoP0=0 IntGTp=1.
 FoFCou: FMM=T IPFlag=           0 FMFlag=      100000 FMFlg1=        2001
         NFxFlg=           0 DoJE=F BraDBF=F KetDBF=F FulRan=T
         wScrn=  0.000000 ICntrl=      3107 IOpCl=  1 I1Cent=           0 NGrid=           0
         NMat0=    1 NMatS0=      1 NMatT0=    0 NMatD0=    1 NMtDS0=    0 NMtDT0=    0
 Symmetry not used in FoFCou.
 FMM levels:  10  Number of levels for PrismC:   9
 Defaulting to unpruned grid for atomic number  70.
 Defaulting to unpruned grid for atomic number  70.
 Defaulting to unpruned grid for atomic number  70.
 Defaulting to unpruned grid for atomic number  70.
 Defaulting to unpruned grid for atomic number  70.
 Defaulting to unpruned grid for atomic number  70.
 Defaulting to unpruned grid for atomic number  70.
 Defaulting to unpruned grid for atomic number  70.
 Defaulting to unpruned grid for atomic number  70.
 Defaulting to unpruned grid for atomic number  70.
 Defaulting to unpruned grid for atomic number  70.
 Defaulting to unpruned grid for atomic number  70.
 Defaulting to unpruned grid for atomic number  70.
 Defaulting to unpruned grid for atomic number  70.
 Defaulting to unpruned grid for atomic number  70.
 Defaulting to unpruned grid for atomic number  70.
 Defaulting to unpruned grid for atomic number  70.
 Defaulting to unpruned grid for atomic number  70.
 Defaulting to unpruned grid for atomic number  70.
 Defaulting to unpruned grid for atomic number  70.
 Defaulting to unpruned grid for atomic number  70.
 Defaulting to unpruned grid for atomic number  70.
 Defaulting to unpruned grid for atomic number  70.
 Defaulting to unpruned grid for atomic number  70.
 NEqPCM:  Using equilibrium solvation (IEInf=0, Eps=  10.1250, EpsInf=   2.0874)
 G2PCM: DoFxE=T DoFxN=T DoGrad=T DoDP/DQ/DG/TGxP=FFFF NFrqRd=   0 IEInf=0 SqF1=F DoCFld=F IF1Alg=4.
 GePol: Maximum number of non-zero 1st derivatives   =     264
 End of G2Drv F.D. properties file   721 does not exist.
 End of G2Drv F.D. properties file   722 does not exist.
 End of G2Drv F.D. properties file   788 does not exist.
 Leave Link 1110 at Mon Mar  3 15:12:22 2025, MaxMem= 82678120448 cpu:           84356.5 elap:            3601.2
 (Enter /sysapps/ubuntu-applications/gaussian-new/avx/g16/l1002.exe)
 Minotr:  UHF open shell wavefunction.
          IDoAtm=11111111111111111111111111111111111111111111111111
          IDoAtm=11111111111111111
 NEqPCM:  Using equilibrium solvation (IEInf=0, Eps=  10.1250, EpsInf=   2.0874)
          Direct CPHF calculation.
          Differentiating once with respect to electric field.
                with respect to dipole field.
          Differentiating once with respect to nuclear coordinates.
          Requested convergence is 1.0D-08 RMS, and 1.0D-07 maximum.
          Secondary convergence is 1.0D-12 RMS, and 1.0D-12 maximum.
          NewPWx=T KeepS1=F KeepF1=F KeepIn=T MapXYZ=F SortEE=F KeepMc=T.
 Defaulting to unpruned grid for atomic number  70.
        20786 words used for storage of precomputed grid.
 Two-electron integrals replicated using symmetry.
          MDV=   82678120448 using IRadAn=       1.
          Solving linear equations simultaneously, MaxMat=      72.
 FoF2E skips out because all densities are zero.
 CalDSu exits because no D1Ps are significant.
 FoFJK:  IHMeth= 1 ICntrl=       0 DoSepK=F KAlg= 0 I1Cent=           0 FoldK=F
 IRaf= 840000000 NMat=      72 IRICut=       1 DoRegI=T DoRafI=F ISym2E= 2 IDoP0=3 IntGTp=3.
 Defaulting to unpruned grid for atomic number  70.
 Defaulting to unpruned grid for atomic number  70.
 Defaulting to unpruned grid for atomic number  70.
 Defaulting to unpruned grid for atomic number  70.
 Defaulting to unpruned grid for atomic number  70.
 Defaulting to unpruned grid for atomic number  70.
 Defaulting to unpruned grid for atomic number  70.
 Defaulting to unpruned grid for atomic number  70.
 Defaulting to unpruned grid for atomic number  70.
 Defaulting to unpruned grid for atomic number  70.
 Defaulting to unpruned grid for atomic number  70.
 Defaulting to unpruned grid for atomic number  70.
 Defaulting to unpruned grid for atomic number  70.
 Defaulting to unpruned grid for atomic number  70.
 Defaulting to unpruned grid for atomic number  70.
 Defaulting to unpruned grid for atomic number  70.
 Defaulting to unpruned grid for atomic number  70.
 Defaulting to unpruned grid for atomic number  70.
 Defaulting to unpruned grid for atomic number  70.
 Defaulting to unpruned grid for atomic number  70.
 Defaulting to unpruned grid for atomic number  70.
 Defaulting to unpruned grid for atomic number  70.
 Defaulting to unpruned grid for atomic number  70.
 Defaulting to unpruned grid for atomic number  70.
          There are   204 degrees of freedom in the 1st order CPHF.  IDoFFX=6 NUNeed=     3.
    204 vectors produced by pass  0 Test12= 2.95D-13 1.00D-09 XBig12= 5.00D+02 4.28D+00.
 AX will form    72 AO Fock derivatives at one time.
    201 vectors produced by pass  1 Test12= 2.95D-13 1.00D-09 XBig12= 9.80D+01 6.65D-01.
    201 vectors produced by pass  2 Test12= 2.95D-13 1.00D-09 XBig12= 3.63D+00 2.10D-01.
    201 vectors produced by pass  3 Test12= 2.95D-13 1.00D-09 XBig12= 7.77D-02 4.60D-02.
    201 vectors produced by pass  4 Test12= 2.95D-13 1.00D-09 XBig12= 1.18D-03 4.18D-03.
    201 vectors produced by pass  5 Test12= 2.95D-13 1.00D-09 XBig12= 1.24D-05 2.79D-04.
    198 vectors produced by pass  6 Test12= 2.95D-13 1.00D-09 XBig12= 1.30D-07 2.10D-05.
    117 vectors produced by pass  7 Test12= 2.95D-13 1.00D-09 XBig12= 1.12D-09 2.14D-06.
     28 vectors produced by pass  8 Test12= 2.95D-13 1.00D-09 XBig12= 9.86D-12 1.82D-07.
      3 vectors produced by pass  9 Test12= 2.95D-13 1.00D-09 XBig12= 1.54D-13 2.59D-08.
[...]
 .00021072,0.00006330,0.00000700,-0.00005396,0.00001613,0.00000546,-0.0
 0000354,0.00000161,0.00038202,0.00033045,-0.00004452,0.00002477,-0.000
 32615,-0.00006557,0.00001137,0.00015104,-0.00032896,0.00013483,0.00013
 001,0.00030497,-0.00001268,-0.00001405,0.00002598,-0.00003338,-0.00004
 183,0.00001816,-0.00002229,-0.00002080,0.00001620,-0.00009447,0.000080
 02,-0.00001846,-0.00000250,-0.00000027,0.00000382,-0.00000089,0.000002
 11,0.00000645,-0.00000662,-0.00000159,-0.00000278,0.00023461,0.0001808
 9,-0.00006135,0.00014985,0.00008081,0.00058747,-0.00016443,0.00001955,
 -0.00001169,-0.00000268,-0.00004413,-0.00001779,0.00000332,-0.00000133
 ,0.00000467,0.00001127,-0.00004088,-0.00002275,-0.07595080,-0.13656622
 ,0.10970694,0.08043157,0.14952885,-0.00332151,-0.00282180,-0.00086430,
 0.00876485,0.01736853,-0.02135647,0.00078025,-0.00053815,-0.00027373,-
 0.00013002,0.00031054,0.00002576,0.00076896,-0.00324342,0.00220812,0.0
 0003810,0.00000107,0.00004236,-0.00003111,0.00013221,-0.00046950,0.000
 10072,-0.00008661,-0.00000539,-0.00008991,0.00008012,0.00006412,-0.000
 01812,0.00000013,-0.00003720,-0.00100264,-0.00043376,0.00366573,0.0000
 2470,-0.00000681,-0.00002828,0.00002344,-0.00003085,-0.00000523,0.0000
 1520,0.00000295,0.00001072,0.00000426,0.00000399,0.00001017,0.00129015
 ,-0.00002989,-0.00101432,0.00010540,0.00060722,-0.00227230,-0.00013481
 ,0.00014635,-0.00035862,-0.00002198,-0.00000126,0.00001146,-0.00000522
 ,0.00002719,0.00003886,0.00005634,0.00000562,0.00002188,-0.00017109,-0
 .00009133,-0.00001279,0.00008012,0.00003371,-0.00007301,0.00000748,-0.
 00000284,-0.00000705,0.00000647,0.00000455,-0.00000253,0.00001022,-0.0
 0000160,0.00000271,-0.00000577,-0.00000094,-0.00001192,0.00000686,-0.0
 0001756,-0.00002260,0.00000188,-0.00000470,-0.00000617,0.00014391,0.00
 019712,0.00008363,0.00008437,0.00001067,-0.00019936,0.00000446,0.00002
 483,0.00000009,-0.00001529,-0.00003890,0.00003771,0.00121632,-0.001724
 64,-0.00085400,0.00054799,0.00003109,-0.00016328,-0.00104071,0.0001359
 4,0.00001384,-0.00009662,-0.00031274,0.00002792,-0.00000312,-0.0000043
 8,0.00001089,-0.00000117,0.00002410,0.00002506,-0.00002174,-0.00001602
 ,0.00000590,0.00000512,0.00002917,0.00001007,0.00017784,-0.00028640,0.
 00019525,-0.00024444,0.00011172,-0.00013975,0.00007841,-0.00001639,-0.
 00023595,0.00006612,-0.00001040,-0.00008213,0.00001786,-0.00003375,-0.
 00001447,0.00021225,0.00024874,-0.00008011,0.00002952,-0.00019239,-0.0
 0006607,-0.00010525,-0.00011088,-0.00019859,0.00002891,0.00002184,0.00
 010882,0.00000354,0.00002442,-0.00001526,-0.00009430,0.00002827,0.0001
 4779,0.00002450,0.00002250,0.00000031,-0.00000247,0.00002069,0.0000314
 5,0.00000333,0.00000291,-0.00000206,-0.00000091,0.00000239,-0.00000427
 ,0.00000040,-0.00000636,-0.00000556,-0.00033441,-0.00000356,-0.0001098
 4,0.00019219,0.00049124,0.00101254,-0.00020981,0.00005339,0.00007385,-
 0.00000287,-0.00005482,-0.00000792,0.00002271,0.00002007,-0.00000356,-
 0.00000733,-0.00006716,-0.00002225,0.08491568,0.11675710,-0.16247690,-
 0.08654210,-0.11964840,0.17590945,0.00028449,0.00046492,-0.00007062,-0
 .00875366,0.00347192,0.00830780,-0.00007127,0.00034099,0.00025864,0.00
 006507,-0.00023605,-0.00017273,-0.00262099,0.00049627,-0.00391128,-0.0
 0009089,-0.00004100,-0.00008373,-0.00021012,-0.00000271,0.00007116,-0.
 00017087,0.00020252,-0.00001964,0.00019075,-0.00023933,-0.00004386,0.0
 0010442,0.00007479,0.00014589,0.00071807,0.00017522,-0.00022966,-0.000
 05352,0.00006573,0.00002608,-0.00005957,0.00008893,-0.00001975,-0.0000
 7440,-0.00004529,-0.00007059,-0.00001634,-0.00002982,-0.00004957,-0.00
 034509,-0.00027921,0.00012590,-0.00047748,-0.00026932,0.00015842,0.000
 14009,0.00024447,-0.00007925,0.00006782,0.00001227,-0.00000122,0.00001
 592,-0.00015218,-0.00000181,-0.00000726,-0.00010729,0.00001224,-0.0001
 0399,-0.00007078,-0.00002184,-0.00007269,-0.00005799,0.00009231,-0.000
 01870,0.00000157,0.00000536,-0.00002310,-0.00002000,0.00000310,-0.0000
 3136,0.00000483,-0.00001697,-0.00003885,0.00008171,-0.00001515,-0.0000
 2090,0.00005421,0.00003839,0.00002403,0.00003967,-0.00001000,-0.000155
 01,-0.00004194,-0.00022106,0.00000624,-0.00005736,0.00009241,0.0000331
 3,-0.00001820,-0.00001315,-0.00000830,0.00003623,-0.00000326,-0.000120
 67,-0.00186257,0.00016189,-0.00166316,0.00366821,0.00035544,-0.0015403
 5,0.00179941,0.00002839,-0.00000369,0.00000918,-0.00004063,0.00002851,
 -0.00003595,-0.00003300,-0.00000705,-0.00006926,-0.00002707,0.00000367
 ,0.00000452,-0.00000657,0.00000571,-0.00000819,-0.00000381,0.00002991,
 0.00147674,0.00009444,-0.00060361,0.00001288,0.00050760,0.00034983,0.0
 0013205,0.00011109,0.00001912,0.00009502,-0.00007005,0.00000411,0.0000
 1656,0.00001995,-0.00057351,-0.00054889,0.00036453,-0.00016878,0.00061
 702,-0.00009260,-0.00075975,-0.00152096,0.00242184,-0.00009936,-0.0002
 3072,-0.00035445,0.00002087,-0.00003476,0.00004121,-0.00047294,0.00020
 019,0.00063584,-0.00008317,0.00015788,-0.00005735,0.00035154,0.0000397
 1,-0.00000824,-0.00000563,-0.00000717,-0.00000115,0.00001874,0.0000113
 5,-0.00003176,0.00000599,-0.00000905,0.00000625,0.00074680,0.00004763,
 0.00019505,0.00020783,0.00002765,-0.00038560,0.00005424,-0.00006356,-0
 .00000135,0.00000150,0.00000618,0.00000558,-0.00001520,-0.00000995,0.0
 0000042,-0.00000025,0.00001029,0.00001430,-0.31548379,0.08331365,0.032
 76986,-0.00777246,0.00441277,-0.00083762,0.33760170,0.00032625,0.00053
 067,-0.00025192,-0.00206666,-0.00466126,0.00252549,-0.00047423,-0.0000
 3446,0.00000738,0.00031888,-0.00005219,0.00013088,0.00152799,0.0027328
 2,0.00026192,0.00004869,0.00000084,0.00000731,-0.00003442,0.00003657,-
 0.00003700,-0.00002382,-0.00000497,0.00001002,-0.00000576,0.00001790,-
 0.00005156,-0.00007533,0.00000231,-0.00003704,0.00034357,0.00007958,0.
 00019404,0.00000897,-0.00001895,0.00001773,0.00000978,-0.00001267,0.00
 001946,0.00003265,-0.00000318,0.00001181,0.00002335,-0.00000212,0.0000
 1091,-0.00009139,-0.00015882,-0.00017951,-0.00036223,-0.00029224,0.000
 15492,-0.00003551,0.00004668,-0.00001666,-0.00003075,0.00000085,-0.000
 00111,-0.00003338,0.00008341,-0.00006682,0.00001479,-0.00002110,0.0000
 0094,-0.00001591,-0.00001664,-0.00000662,0.00000333,-0.00000748,0.0000
 0178,0.00001000,-0.00000312,-0.00000443,0.00000931,0.00000447,-0.00000
 064,0.00001426,-0.00000348,0.00000832,0.00003201,-0.00004601,0.0000467
 6,0.00001321,-0.00001920,0.00000208,-0.00001236,-0.00002196,0.00001874
 ,-0.00000835,0.00041827,0.00023228,0.00015436,0.00022882,-0.00057207,0
 .00000638,0.00003514,0.00004168,-0.00003490,-0.00009162,0.00012346,-0.
 00185260,-0.00094922,-0.00021358,0.00414333,-0.00559312,0.00027875,0.0
 0000700,-0.00264875,0.00012765,-0.00015702,0.00010116,0.00011263,-0.00
 002413,0.00001626,0.00003804,-0.00000505,0.00010158,0.00008522,-0.0000
 4744,-0.00003885,0.00000547,0.00000528,0.00004486,0.00001731,0.0011762
 8,0.00001242,-0.00037877,0.00068767,-0.00015763,-0.00157121,-0.0005628
 5,-0.00079895,-0.00084437,-0.00006491,-0.00021273,0.00001161,0.0000201
 9,-0.00008926,-0.00004053,0.00001325,-0.00011684,0.00035902,-0.0000168
 6,-0.00002753,-0.00005174,0.00006540,-0.00018093,0.00001499,-0.0002120
 2,-0.00021082,0.00001447,0.00000959,0.00003407,-0.00002038,0.00002509,
 -0.00001544,-0.00028840,0.00002399,-0.00003895,0.00004831,0.00018299,-
 0.00020459,0.00006169,0.00000080,0.00002543,-0.00002516,-0.00001221,-0
 .00001003,0.00000780,0.00000940,0.00002142,0.00000221,-0.00005934,0.00
 004507,0.00008336,-0.00015213,-0.00048934,0.00037971,0.00009302,0.0000
 6297,0.00003869,0.00000898,0.00000838,-0.00000335,0.00001597,-0.000009
 23,-0.00003753,-0.00003044,-0.00002620,-0.00000734,0.08248536,-0.06497
 924,-0.01645062,-0.01614829,0.00535390,0.00033940,-0.09413093,0.076127
 95,0.00232511,0.00137662,0.00098061,-0.02407898,0.00932712,0.00984476,
 -0.00099741,0.00030170,0.00004469,0.00057146,-0.00037803,0.00008560,-0
 .00542238,0.00177426,-0.00645248,0.00005560,-0.00002310,0.00001605,0.0
 0017834,-0.00014032,0.00013150,-0.00009166,0.00008927,-0.00000611,0.00
 005371,-0.00006983,-0.00007578,-0.00007163,0.00003320,-0.00003404,-0.0
 0095220,-0.00006302,-0.00064573,-0.00000701,0.00000059,0.00002724,-0.0
 0000917,0.00001996,0.00001511,0.00002024,-0.00002284,-0.00000356,0.000
 02608,-0.00000636,0.00000975,0.00010964,-0.00009689,0.00015124,0.00094
 371,0.00055823,-0.00009368,-0.00008490,-0.00018476,0.00011399,-0.00002
 764,-0.00000404,0.00000218,-0.00006225,0.00001551,-0.00003974,0.000003
 55,0.00007424,-0.00001350,0.00012151,0.00007117,0.00003098,0.00003929,
 0.00003503,-0.00005411,0.00000927,-0.00000220,-0.00000409,0.00000786,0
 .00000486,-0.00000067,0.00001425,-0.00000247,0.00000730,0.00002434,-0.
 00001006,0.00003165,0.00001281,-0.00000135,0.00000862,0.00001842,0.000
 00027,0.00000850,-0.00014291,-0.00014135,-0.00009592,0.00009853,0.0001
 2011,-0.00053837,0.00000997,0.00000865,0.00002787,-0.00001860,-0.00002
 881,0.00001650,-0.00015893,0.00041729,0.00009346,0.00079039,-0.0007541
 8,0.00091685,-0.00030976,0.00010182,0.00003156,-0.00006472,0.00004921,
 0.00001600,-0.00002413,0.00005652,0.00004152,0.00001210,0.00008297,0.0
 0002919,-0.00003898,-0.00001342,0.00001633,0.00000253,0.00002105,0.000
 02745,0.00127909,-0.00306771,-0.00234133,0.00061219,-0.00039372,-0.000
 53267,-0.00064671,-0.00166040,-0.00129762,0.00004076,-0.00023049,0.000
 05094,0.00005251,0.00001453,0.00000378,0.00012869,0.00083212,-0.001275
 54,-0.00018987,-0.00011669,-0.00001787,0.00205485,0.00100068,-0.001976
 87,-0.00002769,-0.00005027,0.00008645,0.00002610,-0.00001677,0.0000050
 0,0.00014268,0.00007269,-0.00000261,0.00017022,-0.00005479,0.00002389,
 0.00008614,-0.00013030,-0.00000528,0.00001054,-0.00000106,-0.00002164,
 -0.00005803,-0.00005035,-0.00001990,0.00000824,-0.00001552,-0.00001048
 ,0.00028326,0.00024101,0.00000151,-0.00005069,-0.00028504,-0.00019985,
 0.00022068,0.00003538,0.00006605,0.00001340,0.00004456,0.00000403,0.00
 000267,-0.00003054,-0.00002989,-0.00003051,-0.00003483,-0.00002189,0.0
 3461759,-0.01636294,-0.04771985,0.01716189,-0.00809068,-0.00055619,-0.
 03963873,0.01674515,0.05288325,-0.00054341,0.00150487,-0.00115442,0.00
 005381,-0.01750466,-0.00411092,0.00004929,0.00005718,0.00005603,0.0000
 0066,-0.00007866,-0.00009800,-0.00035443,0.00118639,-0.00042844,-0.000
 03098,-0.00000748,-0.00001507,-0.00008259,0.00010683,0.00012312,-0.000
 05977,0.00007056,0.00003748,0.00000960,-0.00008923,-0.00009880,0.00004
 405,0.00001454,0.00002272,0.00021999,-0.00027072,-0.00076571,0.0000043
 0,0.00001921,0.00003743,0.00000694,0.00001070,0.00003275,-0.00002399,-
 0.00000515,-0.00001518,-0.00001011,-0.00000733,-0.00000900,-0.00043025
 ,-0.00009526,0.00023642,0.00012913,0.00022598,0.00019537,0.00002292,0.
 00003407,0.00001900,0.00002174,-0.00000494,-0.00000838,-0.00005972,0.0
 0019013,-0.00018398,-0.00000553,0.00000166,0.00000088,0.00000977,0.000
 00186,0.00000388,-0.00002678,-0.00001530,0.00003968,-0.00001016,0.0000
 0498,0.00000980,-0.00000588,-0.00000242,0.00000366,-0.00000882,0.00000
 394,-0.00000249,0.00019751,-0.00018016,0.00019822,0.00003353,-0.000032
 62,0.00001730,-0.00001374,-0.00004029,0.00004513,-0.00027536,0.0000847
 6,-0.00003979,0.00007136,0.00002890,-0.00013569,-0.00000972,-0.0000058
 1,0.00001546,-0.00001476,0.00001424,0.00004162,-0.00027133,-0.00005133
 ,0.00016306,0.00036537,-0.00001352,-0.00000436,-0.00036119,0.00027160,
 0.00013688,0.00001244,-0.00003628,-0.00008423,0.00000951,-0.00000678,0
 .00000278,0.00000246,0.00000377,0.00001094,0.00000559,-0.00000420,-0.0
 0000611,0.00000131,-0.00000485,-0.00000413,0.00027661,-0.00027485,-0.0
 0032708,0.00026102,-0.00010599,-0.00032127,0.00004255,0.00019237,0.000
 17787,-0.00007077,-0.00004374,-0.00005464,0.00002472,-0.00003233,-0.00
 001152,0.00029035,0.00020213,-0.00028220,-0.00007501,-0.00035493,0.000
 01075,0.00001429,0.00021930,-0.00018558,0.00001391,-0.00016817,0.00014
 228,0.00001957,0.00002350,-0.00001621,-0.00013334,0.00018872,-0.000129
 05,0.00002005,-0.00002115,0.00000070,0.00024768,-0.00029876,0.00003700
 ,-0.00000594,0.00004056,-0.00002064,-0.00002552,-0.00000285,0.00001800
 ,-0.00000700,-0.00002370,0.00001810,0.00022783,-0.00011893,-0.00002292
 ,0.00024378,-0.00023405,-0.00063898,-0.00001673,-0.00002740,-0.0000123
 3,0.00000190,-0.00001772,0.00000004,-0.00000322,0.00000091,-0.00000784
 ,-0.00000438,0.00000182,0.00000779,-0.04417088,0.01163786,0.00111166,-
 0.00012926,-0.01117070,-0.00536850,0.00169766,0.02490984,0.01084529,0.
 04258736,-0.00019824,0.00007733,0.00089020,0.00034712,0.00014454,0.001
 23259,0.00011887,-0.00008549,0.00003287,-0.00000130,0.00012656,0.00009
 469,0.00111874,0.00075238,0.00167666,0.00002025,0.00001590,0.00002032,
 0.00002700,0.00009059,-0.00001939,0.00002743,-0.00004765,0.00001041,-0
 .00002415,0.00008172,-0.00000734,-0.00002752,-0.00002686,-0.00003924,0
 .00008194,-0.00027506,-0.00005299,0.00000748,-0.00003310,0.00000997,0.
 00000855,-0.00002452,0.00000495,0.00002034,0.00001523,0.00002243,0.000
 00294,0.00000925,0.00001425,-0.00010205,0.00007966,-0.00000998,-0.0001
 2402,0.00009678,0.00010423,-0.00002338,-0.00003526,0.00001252,-0.00001
 591,-0.00000366,-0.00000361,0.00001366,0.00002419,0.00000931,-0.000002
 24,0.00002564,-0.00000128,0.00001763,0.00001071,0.00000119,0.00000562,
 0.00000690,-0.00000143,0.00000428,0.00000059,0.00000059,0.00000577,0.0
 0000533,-0.00000049,0.00000769,-0.00000144,0.00000498,-0.00008770,0.00
 002433,-0.00004114,-0.00000465,-0.00000842,-0.00000498,-0.00001831,-0.
 00001426,0.00000043,0.00014575,0.00002857,-0.00002860,-0.00003845,0.00
 002907,0.00003564,-0.00000220,0.00000645,0.00000381,0.00000673,0.00000
 212,-0.00001479,0.00018674,-0.00057573,-0.00006485,-0.00020046,0.00003
 865,0.00002014,0.00005694,-0.00007603,-0.00017601,0.00005009,0.0000577
 8,0.00001359,0.00000555,-0.00000018,-0.00000499,-0.00000392,0.00000247
 ,-0.00001255,0.00000232,-0.00000223,-0.00000183,-0.00000552,-0.0000053
 2,-0.00000028,-0.00008437,0.00010786,-0.00005902,0.00008017,-0.0000494
 9,0.00011412,0.00008894,0.00012986,0.00036159,-0.00005964,-0.00000517,
 0.00005770,-0.00002417,-0.00000033,-0.00000274,0.00042703,-0.00005988,
 -0.00017988,-0.00004171,-0.00019019,0.00005133,0.00006030,-0.00008616,
 -0.00035834,-0.00017712,-0.00055887,0.00055465,0.00000803,0.00001167,-
 0.00000583,-0.00011173,0.00005019,0.00007812,-0.00001216,0.00000235,-0
 .00000909,-0.00003707,-0.00025938,0.00007148,0.00003054,-0.00000636,-0
 .00000124,0.00001098,0.00002036,-0.00001026,-0.00001125,-0.00001056,-0
 .00002503,-0.00023796,-0.00001232,-0.00008268,-0.00012371,0.00002389,0
 .00011933,0.00000251,0.00002296,-0.00000328,0.00000215,0.00000398,-0.0
 0000423,0.00000150,0.00000149,-0.00000163,-0.00000022,0.00000443,-0.00
 000096,0.00918559,-0.29239759,-0.10402668,0.00122954,-0.01318703,-0.00
 748305,-0.00171471,-0.00390466,-0.00099068,-0.00990090,0.30981142,-0.0
 0283726,0.00088091,-0.00304356,-0.00256275,-0.02671329,-0.01626064,0.0
 0090994,-0.00035593,-0.00040315,-0.00032671,0.00029422,0.00015057,0.00
 506367,0.00105818,0.00273840,-0.00000624,0.00002269,0.00002521,0.00005
 897,-0.00001060,-0.00005367,0.00007272,-0.00006091,0.00001692,-0.00011
 850,0.00008282,0.00002133,0.00002061,-0.00004472,-0.00002737,-0.000283
 28,0.00002044,0.00029639,0.00003254,-0.00001142,-0.00002705,0.00003195
 ,-0.00003391,0.00000970,0.00000870,0.00003183,0.00002975,-0.00001160,0
 .00001498,0.00000995,0.00022807,0.00013088,-0.00006476,0.00011516,-0.0
 0010455,-0.00016788,-0.00003689,-0.00004225,0.00000766,-0.00000899,-0.
 00000180,0.00000257,-0.00006909,0.00010939,0.00001062,0.00000675,0.000
 01765,-0.00000351,0.00000851,0.00000871,0.00000232,0.00002279,0.000013
 46,-0.00003507,0.00000209,-0.00000060,-0.00000163,0.00000363,0.0000038
 5,-0.00000104,0.00000273,-0.00000044,0.00000050,0.00007477,-0.00008352
 ,0.00002537,0.00003014,-0.00004244,-0.00003449,0.00001326,-0.00001607,
 -0.00000108,-0.00047732,-0.00008144,0.00002061,0.00005325,-0.00004983,
 0.00002209,0.00001068,-0.00003513,-0.00000922,-0.00004207,0.00004212,0
 .00002155,0.00032833,-0.00019813,-0.00023529,0.00038121,0.00025961,-0.
 00026201,-0.00069145,0.00023474,0.00012096,-0.00002423,-0.00000977,0.0
 0005024,0.00000013,-0.00000157,0.00000050,0.00001316,-0.00001764,0.000
 00881,0.00000311,0.00001495,0.00000657,0.00001401,-0.00000235,-0.00000
 124,-0.00018940,-0.00012737,0.00001456,0.00003009,-0.00008732,0.000185
 22,-0.00010134,0.00069944,0.00055165,-0.00010814,0.00007006,-0.0000556
 5,0.00006220,0.00002181,0.00002120,-0.00013376,-0.00022600,0.00014692,
 -0.00019817,-0.00021355,-0.00015040,-0.00004826,-0.00002893,0.00011134
 ,-0.00007651,0.00024966,0.00016075,0.00001659,0.00001728,-0.00003710,-
 0.00002872,0.00009262,0.00008625,-0.00001359,0.00000175,0.00001052,0.0
 0003931,-0.00001135,0.00013067,0.00001571,0.00002557,-0.00001760,-0.00
 002885,-0.00000161,-0.00000024,-0.00000634,-0.00002371,-0.00001352,-0.
 00034286,-0.00008890,-0.00014100,0.00062306,0.00011313,-0.00103812,-0.
 00027578,-0.00005061,-0.00003416,-0.00001060,-0.00007825,0.00000202,0.
 00001784,0.00004280,0.00001842,0.00000634,-0.00000172,-0.00000005,0.00
 109317,-0.10076196,-0.07429914,-0.00067460,0.01837870,0.00826249,-0.00
 042627,-0.00144103,-0.00176416,0.00074436,0.10810633,0.08488322\\0.000
 11286,-0.00004792,-0.00013410,-0.00003776,-0.00000802,0.00008173,-0.00
 005611,-0.00014899,-0.00005324,0.00001708,0.00010184,0.00004436,0.0000
 0042,0.00005954,0.00001760,-0.00002687,-0.00002864,0.00000136,0.000042
 99,-0.00012401,0.00005140,-0.00004232,0.00004715,0.00001229,0.00013664
 ,0.00010012,0.00001311,-0.00012301,0.00004472,0.00003904,-0.00010014,-
 0.00001342,0.00008658,-0.00003298,-0.00002086,0.00010776,-0.00004460,-
 0.00010867,-0.00000388,0.00002436,0.00001462,0.00001375,0.00003842,0.0
 0003977,-0.00000113,-0.00013193,0.00009954,-0.00004068,0.00011883,0.00
 012516,-0.00009316,0.00003345,0.00004256,0.00006540,-0.00001167,0.0000
 0253,0.00002160,0.00004777,0.00008178,-0.00008155,-0.00000742,-0.00007
 330,-0.00001372,-0.00005467,0.00003466,-0.00005454,0.00000772,-0.00004
 835,-0.00002796,0.00000564,0.00000065,-0.00002448,0.00000846,0.0000217
 3,-0.00000734,-0.00001825,0.00002790,-0.00000237,0.00002505,-0.0000433
 5,0.00003130,0.00001209,0.00000995,0.00003029,-0.00002765,-0.00003819,
 0.00010436,-0.00002983,0.00005456,0.00001274,0.00009029,-0.00009887,0.
 00000236,-0.00004396,-0.00000340,0.00001303,-0.00001203,0.00003211,-0.
 00003239,0.00003473,-0.00009567,0.00010202,-0.00001698,0.00000404,-0.0
 0007122,-0.00000343,-0.00000881,-0.00002103,0.00003895,0.00002085,-0.0
 0014519,-0.00000584,-0.00000729,-0.00000598,0.00001208,-0.00002696,-0.
 00002780,-0.00000207,0.00000414,-0.00000158,-0.00000494,0.00002230,-0.
 00000191,0.00004311,-0.00007073,-0.00005165,-0.00001399,0.00000503,0.0
 0004067,-0.00004835,0.00007688,-0.00002575,-0.00001185,0.00000689,-0.0
 0000834,-0.00000356,-0.00000383,-0.00001071,-0.00006111,-0.00000351,0.
 00000919,0.00000106,-0.00001341,0.00001552,0.00001367,-0.00000027,0.00
 001352,0.00001076,-0.00001422,0.00001720,-0.00000035,0.00000268,0.0000
 1060,0.00000239,-0.00000953,0.00001651,-0.00000292,0.00000139,-0.00001
 408,-0.00001345,-0.00000817,0.00000495,0.00001110,-0.00000223,0.000016
 06,0.00000531,-0.00001351,0.00000469,0.00001306,-0.00001508,0.00001555
 ,0.00004263,-0.00010268,-0.00016242,-0.00000805,0.00006398,0.00007660,
 -0.00010943,0.00012913,0.00006427,0.00002577,0.00003575,-0.00002890,0.
 00001023,0.00000573,-0.00002903,0.00007525,-0.00005824,0.00004179,0.00
 003544,-0.00000439,0.00001097,-0.00009606,-0.00005588,0.00002284,0.000
 04425,-0.00001030,-0.00004784,0.00006173,0.00001100,-0.00000905\\\@


 THE REAL VOYAGE OF DISCOVERY CONSISTS NOT IN SEEKING NEW LANDSCAPES 
 BUT IN HAVING NEW EYES.
                                                    -- MARCEL PROUST
 Job cpu time:       5 days  0 hours 22 minutes 29.3 seconds.
 Elapsed time:       0 days  5 hours 10 minutes 15.0 seconds.
 File lengths (MBytes):  RWF=  12728 Int=      0 D2E=      0 Chk=     88 Scr=      8
 Normal termination of Gaussian 16 at Mon Mar  3 18:56:38 2025.
