 Entering Gaussian System, Link 0=/sysapps/ubuntu-applications/gaussian-new/avx/g16//g16
 Input=i3-minor.in
 Output=i3-minor.log
 Initial command:
 /sysapps/ubuntu-applications/gaussian-new/avx/g16/l1.exe "/data/temp-scratch/selhajj1/7629310/Gau-278147.inp" -scrdir="/data/temp-scratch/selhajj1/7629310/"
 Entering Link 1 = /sysapps/ubuntu-applications/gaussian-new/avx/g16/l1.exe PID=    278149.
  
 Copyright (c) 1988,1990,1992,1993,1995,1998,2003,2009,2016,
            Gaussian, Inc.  All Rights Reserved.
  
 This is part of the Gaussian(R) 16 program.  It is based on
 the Gaussian(R) 09 system (copyright 2009, Gaussian, Inc.),
 the Gaussian(R) 03 system (copyright 2003, Gaussian, Inc.),
 the Gaussian(R) 98 system (copyright 1998, Gaussian, Inc.),
 the Gaussian(R) 94 system (copyright 1995, Gaussian, Inc.),
 the Gaussian 92(TM) system (copyright 1992, Gaussian, Inc.),
 the Gaussian 90(TM) system (copyright 1990, Gaussian, Inc.),
 the Gaussian 88(TM) system (copyright 1988, Gaussian, Inc.),
 the Gaussian 86(TM) system (copyright 1986, Carnegie Mellon
 University), and the Gaussian 82(TM) system (copyright 1983,
 Carnegie Mellon University). Gaussian is a federally registered
 trademark of Gaussian, Inc.
  
 This software contains proprietary and confidential information,
 including trade secrets, belonging to Gaussian, Inc.
  
 This software is provided under written license and may be
 used, copied, transmitted, or stored only in accord with that
 written license.
  
 The following legend is applicable only to US Government
 contracts under FAR:
  
                    RESTRICTED RIGHTS LEGEND
  
 Use, reproduction and disclosure by the US Government is
 subject to restrictions as set forth in subparagraphs (a)
 and (c) of the Commercial Computer Software - Restricted
 Rights clause in FAR 52.227-19.
  
 Gaussian, Inc.
 340 Quinnipiac St., Bldg. 40, Wallingford CT 06492
  
  
 ---------------------------------------------------------------
 Warning -- This program may not be used in any manner that
 competes with the business of Gaussian, Inc. or will provide
 assistance to any competitor of Gaussian, Inc.  The licensee
 of this program is prohibited from giving any competitor of
 Gaussian, Inc. access to this program.  By using this program,
 the user acknowledges that Gaussian, Inc. is engaged in the
 business of creating and licensing software in the field of
 computational chemistry and represents and warrants to the
 licensee that it is not a competitor of Gaussian, Inc. and that
 it will not use this program in any manner prohibited above.
 ---------------------------------------------------------------
  

 Cite this work as:
 Gaussian 16, Revision A.03,
 M. J. Frisch, G. W. Trucks, H. B. Schlegel, G. E. Scuseria, 
 M. A. Robb, J. R. Cheeseman, G. Scalmani, V. Barone, 
 G. A. Petersson, H. Nakatsuji, X. Li, M. Caricato, A. V. Marenich, 
 J. Bloino, B. G. Janesko, R. Gomperts, B. Mennucci, H. P. Hratchian, 
 J. V. Ortiz, A. F. Izmaylov, J. L. Sonnenberg, D. Williams-Young, 
 F. Ding, F. Lipparini, F. Egidi, J. Goings, B. Peng, A. Petrone, 
 T. Henderson, D. Ranasinghe, V. G. Zakrzewski, J. Gao, N. Rega, 
 G. Zheng, W. Liang, M. Hada, M. Ehara, K. Toyota, R. Fukuda, 
 J. Hasegawa, M. Ishida, T. Nakajima, Y. Honda, O. Kitao, H. Nakai, 
 T. Vreven, K. Throssell, J. A. Montgomery, Jr., J. E. Peralta, 
 F. Ogliaro, M. J. Bearpark, J. J. Heyd, E. N. Brothers, K. N. Kudin, 
 V. N. Staroverov, T. A. Keith, R. Kobayashi, J. Normand, 
 K. Raghavachari, A. P. Rendell, J. C. Burant, S. S. Iyengar, 
 J. Tomasi, M. Cossi, J. M. Millam, M. Klene, C. Adamo, R. Cammi, 
 J. W. Ochterski, R. L. Martin, K. Morokuma, O. Farkas, 
 J. B. Foresman, and D. J. Fox, Gaussian, Inc., Wallingford CT, 2016.
 
 ******************************************
 Gaussian 16:  ES64L-G16RevA.03 25-Dec-2016
                 3-Mar-2025 
 ******************************************
 %chk=i3-minor.chk
 %mem=616Gb
 %nprocshared=24
 Will use up to   24 processors via shared memory.
 ------------------------------------------------------------------
 #P MN15/gen scf=(maxcyc=500) opt scrf=(smd,solvent=DiChloroEthane)
 ------------------------------------------------------------------
 1/18=20,19=15,26=3,38=1/1,3;
 2/9=110,12=2,17=6,18=5,40=1/2;
 3/5=7,11=2,25=1,30=1,70=32201,71=1,72=10,74=-73/1,2,3;
 4//1;
 5/5=2,7=500,38=5,53=10/2;
 6/7=2,8=2,9=2,10=2,28=1/1;
 7//1,2,3,16;
 1/18=20,19=15,26=3/3(2);
 2/9=110/2;
 99//99;
 2/9=110/2;
 3/5=7,6=1,11=2,25=1,30=1,70=32205,71=1,72=10,74=-73,82=7/1,2,3;
 4/5=5,16=3,69=1/1;
 5/5=2,7=500,38=5,53=10/2;
 7//1,2,3,16;
 1/18=20,19=15,26=3/3(-5);
 2/9=110/2;
 6/7=2,8=2,9=2,10=2,19=2,28=1/1;
 99/9=1/99;
 Leave Link    1 at Mon Mar  3 15:33:47 2025, MaxMem= 82678120448 cpu:               9.2 elap:               0.4
 (Enter /sysapps/ubuntu-applications/gaussian-new/avx/g16/l101.exe)
 ---
 Opt
 ---
 Symbolic Z-matrix:
 Charge =  0 Multiplicity = 1
 C                     1.84132  -0.95475  -0.71959 
 C                     1.43735  -0.27118   0.58875 
 C                     0.56068  -1.48522  -1.35561 
 O                    -0.37194  -0.72257  -1.63489 
 O                     0.46437   0.48905   0.6486 
 O                    -3.05771  -1.21293  -0.62724 
 O                    -2.14298  -0.13207   1.82143 
 O                    -0.65579   2.15976  -1.23991 
 S                    -1.55336   3.10563  -0.51289 
 S                    -3.7496   -0.47074  -1.7319 
 S                    -1.60552  -1.51851   2.04923 
 O                    -2.27866   2.23209   0.47664 
 O                    -2.32815   4.05004  -1.27121 
 O                    -2.917     0.76206  -1.89162 
 O                    -4.13021  -1.20362  -2.90715 
 O                    -0.84075  -1.85923   0.81832 
 O                    -0.96453  -1.75324   3.31998 
 C                    -3.11574  -2.62616   2.01977 
 C                    -5.28762   0.12737  -0.91449 
 C                    -0.4283    4.0994    0.55275 
 F                    -2.99503  -3.50488   1.0467 
 F                    -4.20291  -1.90415   1.84881 
 F                    -3.1831   -3.25593   3.1757 
 F                    -4.94605   0.76271   0.19239 
 F                    -6.04866  -0.90703  -0.62023 
 F                    -5.92847   0.94567  -1.72264 
 F                     0.1959    3.30403   1.39913 
 F                    -1.13815   4.98888   1.21708 
 F                     0.44906   4.71527  -0.2196 
 C                     3.751     0.64433  -1.35057 
 C                     4.68351  -0.59358  -1.34184 
 C                     6.09033  -0.20618  -1.08703 
 C                     4.68048  -1.22113  -2.69897 
 C                     2.55406  -3.0538    0.53494 
 C                     4.90322  -3.53482   0.57338 
 C                     3.54758  -3.78462   1.05521 
 H                     1.51214  -3.15711   0.85159 
 H                     5.71976  -4.224     0.80567 
 H                     3.37778  -4.53855   1.82523 
 N                     7.18618   0.14348  -0.96305 
 N                     4.62647  -1.7503   -3.72747 
 N                     4.22848  -1.55802  -0.34913 
 N                     5.2174   -2.47849  -0.08757 
 C                     2.87952  -2.08223  -0.57553 
 H                     2.86351  -2.6279   -1.54602 
 C                     2.33822   0.15696  -1.68403 
 H                     1.62096   0.99101  -1.66808 
 H                     2.32855  -0.2564   -2.70517 
 Sc                   -1.515     0.32337  -0.19287 
 H                     4.07137   1.26457  -2.20279 
 C                     3.85025   1.51851  -0.10262 
 C                     3.16716   2.74513  -0.1255 
 C                     4.61349   1.20267   1.03185 
 C                     3.27462   3.64554   0.93654 
 H                     2.55913   3.01031  -0.99649 
 C                     4.72281   2.10517   2.09227 
 H                     5.11674   0.23917   1.11867 
 C                     4.06092   3.33251   2.04706 
 H                     2.74668   4.59945   0.89116 
 H                     5.3293    1.83815   2.96064 
 H                     4.15237   4.04021   2.87392 
 C                     0.52129  -2.85857  -1.63179 
 H                    -0.33215  -3.07582  -2.23954 
 H                     1.41167  -3.14337  -2.15237 
 H                     0.45425  -3.4051   -0.71434 
 C                     2.25743  -0.5236    1.69675 
 H                     3.28354  -0.49605   1.39467 
 H                     2.08572   0.22194   2.44481 
 H                     2.0292   -1.48942   2.09676 
 
 ITRead=  0  0  0  0  0  0  0  0  0  0  0  0  0  0  0  0  0  0  0  0
 ITRead=  0  0  0  0  0  0  0  0  0  0  0  0  0  0  0  0  0  0  0  0
 ITRead=  0  0  0  0  0  0  0  0  0  0  0  0  0  0  0  0  0  0  0  0
 ITRead=  0  0  0  0  0  0  0  0  0
 MicOpt= -1 -1 -1 -1 -1 -1 -1 -1 -1 -1 -1 -1 -1 -1 -1 -1 -1 -1 -1 -1
 MicOpt= -1 -1 -1 -1 -1 -1 -1 -1 -1 -1 -1 -1 -1 -1 -1 -1 -1 -1 -1 -1
 MicOpt= -1 -1 -1 -1 -1 -1 -1 -1 -1 -1 -1 -1 -1 -1 -1 -1 -1 -1 -1 -1
 MicOpt= -1 -1 -1 -1 -1 -1 -1 -1 -1
 NAtoms=     69 NQM=       69 NQMF=       0 NMMI=      0 NMMIF=      0
                NMic=       0 NMicF=      0.
                    Isotopes and Nuclear Properties:
 (Nuclear quadrupole moments (NQMom) in fm**2, nuclear magnetic moments (NMagM)
  in nuclear magnetons)

  Atom         1           2           3           4           5           6           7           8           9          10
 IAtWgt=          12          12          12          16          16          16          16          16          32          32
 AtmWgt=  12.0000000  12.0000000  12.0000000  15.9949146  15.9949146  15.9949146  15.9949146  15.9949146  31.9720718  31.9720718
 NucSpn=           0           0           0           0           0           0           0           0           0           0
 AtZEff=  -0.0000000  -0.0000000  -0.0000000  -0.0000000  -0.0000000  -0.0000000  -0.0000000  -0.0000000  -0.0000000  -0.0000000
 NQMom=    0.0000000   0.0000000   0.0000000   0.0000000   0.0000000   0.0000000   0.0000000   0.0000000   0.0000000   0.0000000
 NMagM=    0.0000000   0.0000000   0.0000000   0.0000000   0.0000000   0.0000000   0.0000000   0.0000000   0.0000000   0.0000000
 AtZNuc=   6.0000000   6.0000000   6.0000000   8.0000000   8.0000000   8.0000000   8.0000000   8.0000000  16.0000000  16.0000000

  Atom        11          12          13          14          15          16          17          18          19          20
 IAtWgt=          32          16          16          16          16          16          16          12          12          12
 AtmWgt=  31.9720718  15.9949146  15.9949146  15.9949146  15.9949146  15.9949146  15.9949146  12.0000000  12.0000000  12.0000000
 NucSpn=           0           0           0           0           0           0           0           0           0           0
 AtZEff=  -0.0000000  -0.0000000  -0.0000000  -0.0000000  -0.0000000  -0.0000000  -0.0000000  -0.0000000  -0.0000000  -0.0000000
 NQMom=    0.0000000   0.0000000   0.0000000   0.0000000   0.0000000   0.0000000   0.0000000   0.0000000   0.0000000   0.0000000
 NMagM=    0.0000000   0.0000000   0.0000000   0.0000000   0.0000000   0.0000000   0.0000000   0.0000000   0.0000000   0.0000000
 AtZNuc=  16.0000000   8.0000000   8.0000000   8.0000000   8.0000000   8.0000000   8.0000000   6.0000000   6.0000000   6.0000000

  Atom        21          22          23          24          25          26          27          28          29          30
 IAtWgt=          19          19          19          19          19          19          19          19          19          12
 AtmWgt=  18.9984032  18.9984032  18.9984032  18.9984032  18.9984032  18.9984032  18.9984032  18.9984032  18.9984032  12.0000000
 NucSpn=           1           1           1           1           1           1           1           1           1           0
 AtZEff=  -0.0000000  -0.0000000  -0.0000000  -0.0000000  -0.0000000  -0.0000000  -0.0000000  -0.0000000  -0.0000000  -0.0000000
 NQMom=    0.0000000   0.0000000   0.0000000   0.0000000   0.0000000   0.0000000   0.0000000   0.0000000   0.0000000   0.0000000
 NMagM=    2.6288670   2.6288670   2.6288670   2.6288670   2.6288670   2.6288670   2.6288670   2.6288670   2.6288670   0.0000000
 AtZNuc=   9.0000000   9.0000000   9.0000000   9.0000000   9.0000000   9.0000000   9.0000000   9.0000000   9.0000000   6.0000000

  Atom        31          32          33          34          35          36          37          38          39          40
 IAtWgt=          12          12          12          12          12          12           1           1           1          14
 AtmWgt=  12.0000000  12.0000000  12.0000000  12.0000000  12.0000000  12.0000000   1.0078250   1.0078250   1.0078250  14.0030740
 NucSpn=           0           0           0           0           0           0           1           1           1           2
 AtZEff=  -0.0000000  -0.0000000  -0.0000000  -0.0000000  -0.0000000  -0.0000000  -0.0000000  -0.0000000  -0.0000000  -0.0000000
 NQMom=    0.0000000   0.0000000   0.0000000   0.0000000   0.0000000   0.0000000   0.0000000   0.0000000   0.0000000   2.0440000
 NMagM=    0.0000000   0.0000000   0.0000000   0.0000000   0.0000000   0.0000000   2.7928460   2.7928460   2.7928460   0.4037610
 AtZNuc=   6.0000000   6.0000000   6.0000000   6.0000000   6.0000000   6.0000000   1.0000000   1.0000000   1.0000000   7.0000000

  Atom        41          42          43          44          45          46          47          48          49          50
 IAtWgt=          14          14          14          12           1          12           1           1          45           1
 AtmWgt=  14.0030740  14.0030740  14.0030740  12.0000000   1.0078250  12.0000000   1.0078250   1.0078250  44.9559136   1.0078250
 NucSpn=           2           2           2           0           1           0           1           1           7           1
 AtZEff=  -0.0000000  -0.0000000  -0.0000000  -0.0000000  -0.0000000  -0.0000000  -0.0000000  -0.0000000  -0.0000000  -0.0000000
 NQMom=    2.0440000   2.0440000   2.0440000   0.0000000   0.0000000   0.0000000   0.0000000   0.0000000 -22.0000000   0.0000000
 NMagM=    0.4037610   0.4037610   0.4037610   0.0000000   2.7928460   0.0000000   2.7928460   2.7928460   4.7564830   2.7928460
 AtZNuc=   7.0000000   7.0000000   7.0000000   6.0000000   1.0000000   6.0000000   1.0000000   1.0000000  21.0000000   1.0000000

  Atom        51          52          53          54          55          56          57          58          59          60
 IAtWgt=          12          12          12          12           1          12           1          12           1           1
 AtmWgt=  12.0000000  12.0000000  12.0000000  12.0000000   1.0078250  12.0000000   1.0078250  12.0000000   1.0078250   1.0078250
 NucSpn=           0           0           0           0           1           0           1           0           1           1
 AtZEff=  -0.0000000  -0.0000000  -0.0000000  -0.0000000  -0.0000000  -0.0000000  -0.0000000  -0.0000000  -0.0000000  -0.0000000
 NQMom=    0.0000000   0.0000000   0.0000000   0.0000000   0.0000000   0.0000000   0.0000000   0.0000000   0.0000000   0.0000000
 NMagM=    0.0000000   0.0000000   0.0000000   0.0000000   2.7928460   0.0000000   2.7928460   0.0000000   2.7928460   2.7928460
 AtZNuc=   6.0000000   6.0000000   6.0000000   6.0000000   1.0000000   6.0000000   1.0000000   6.0000000   1.0000000   1.0000000

  Atom        61          62          63          64          65          66          67          68          69
 IAtWgt=           1          12           1           1           1          12           1           1           1
 AtmWgt=   1.0078250  12.0000000   1.0078250   1.0078250   1.0078250  12.0000000   1.0078250   1.0078250   1.0078250
 NucSpn=           1           0           1           1           1           0           1           1           1
 AtZEff=  -0.0000000  -0.0000000  -0.0000000  -0.0000000  -0.0000000  -0.0000000  -0.0000000  -0.0000000  -0.0000000
 NQMom=    0.0000000   0.0000000   0.0000000   0.0000000   0.0000000   0.0000000   0.0000000   0.0000000   0.0000000
 NMagM=    2.7928460   0.0000000   2.7928460   2.7928460   2.7928460   0.0000000   2.7928460   2.7928460   2.7928460
 AtZNuc=   1.0000000   6.0000000   1.0000000   1.0000000   1.0000000   6.0000000   1.0000000   1.0000000   1.0000000
 Leave Link  101 at Mon Mar  3 15:33:48 2025, MaxMem= 82678120448 cpu:              16.7 elap:               0.7
 (Enter /sysapps/ubuntu-applications/gaussian-new/avx/g16/l103.exe)

 GradGradGradGradGradGradGradGradGradGradGradGradGradGradGradGradGradGrad
 Berny optimization.
 Initialization pass.
                           ----------------------------
                           !    Initial Parameters    !
                           ! (Angstroms and Degrees)  !
 --------------------------                            --------------------------
 ! Name  Definition              Value          Derivative Info.                !
 --------------------------------------------------------------------------------
 ! R1    R(1,2)                  1.5304         estimate D2E/DX2                !
 ! R2    R(1,3)                  1.5251         estimate D2E/DX2                !
 ! R3    R(1,44)                 1.5394         estimate D2E/DX2                !
 ! R4    R(1,46)                 1.5534         estimate D2E/DX2                !
 ! R5    R(2,5)                  1.2362         estimate D2E/DX2                !
 ! R6    R(2,66)                 1.4014         estimate D2E/DX2                !
 ! R7    R(3,4)                  1.2367         estimate D2E/DX2                !
 ! R8    R(3,62)                 1.4014         estimate D2E/DX2                !
 ! R9    R(4,49)                 2.1166         estimate D2E/DX2                !
 ! R10   R(5,49)                 2.1572         estimate D2E/DX2                !
 ! R11   R(6,10)                 1.4999         estimate D2E/DX2                !
 ! R12   R(6,49)                 2.2201         estimate D2E/DX2                !
 ! R13   R(7,11)                 1.5043         estimate D2E/DX2                !
 ! R14   R(7,49)                 2.1585         estimate D2E/DX2                !
 ! R15   R(8,9)                  1.4929         estimate D2E/DX2                !
 ! R16   R(8,49)                 2.2818         estimate D2E/DX2                !
 ! R17   R(9,12)                 1.5061         estimate D2E/DX2                !
 ! R18   R(9,13)                 1.4378         estimate D2E/DX2                !
 ! R19   R(9,20)                 1.8409         estimate D2E/DX2                !
 ! R20   R(9,49)                 2.8009         estimate D2E/DX2                !
 ! R21   R(10,14)                1.4962         estimate D2E/DX2                !
 ! R22   R(10,15)                1.4364         estimate D2E/DX2                !
 ! R23   R(10,19)                1.8416         estimate D2E/DX2                !
 ! R24   R(10,49)                2.8271         estimate D2E/DX2                !
 ! R25   R(11,16)                1.4887         estimate D2E/DX2                !
 ! R26   R(11,17)                1.4425         estimate D2E/DX2                !
 ! R27   R(11,18)                1.8731         estimate D2E/DX2                !
 ! R28   R(11,49)                2.9031         estimate D2E/DX2                !
 ! R29   R(12,49)                2.1621         estimate D2E/DX2                !
 ! R30   R(14,49)                2.2458         estimate D2E/DX2                !
 ! R31   R(18,21)                1.3167         estimate D2E/DX2                !
 ! R32   R(18,22)                1.3162         estimate D2E/DX2                !
 ! R33   R(18,23)                1.3181         estimate D2E/DX2                !
 ! R34   R(19,24)                1.3212         estimate D2E/DX2                !
 ! R35   R(19,25)                1.3175         estimate D2E/DX2                !
 ! R36   R(19,26)                1.3166         estimate D2E/DX2                !
 ! R37   R(20,27)                1.3186         estimate D2E/DX2                !
 ! R38   R(20,28)                1.3177         estimate D2E/DX2                !
 ! R39   R(20,29)                1.3212         estimate D2E/DX2                !
 ! R40   R(30,31)                1.5499         estimate D2E/DX2                !
 ! R41   R(30,46)                1.5312         estimate D2E/DX2                !
 ! R42   R(30,50)                1.1016         estimate D2E/DX2                !
 ! R43   R(30,51)                1.5269         estimate D2E/DX2                !
 ! R44   R(31,32)                1.4813         estimate D2E/DX2                !
 ! R45   R(31,33)                1.4952         estimate D2E/DX2                !
 ! R46   R(31,42)                1.4569         estimate D2E/DX2                !
 ! R47   R(32,40)                1.1569         estimate D2E/DX2                !
 ! R48   R(33,41)                1.1579         estimate D2E/DX2                !
 ! R49   R(34,36)                1.3386         estimate D2E/DX2                !
 ! R50   R(34,37)                1.0939         estimate D2E/DX2                !
 ! R51   R(34,44)                1.511          estimate D2E/DX2                !
 ! R52   R(35,36)                1.4602         estimate D2E/DX2                !
 ! R53   R(35,38)                1.0935         estimate D2E/DX2                !
 ! R54   R(35,43)                1.2851         estimate D2E/DX2                !
 ! R55   R(36,39)                1.091          estimate D2E/DX2                !
 ! R56   R(42,43)                1.3761         estimate D2E/DX2                !
 ! R57   R(42,44)                1.4648         estimate D2E/DX2                !
 ! R58   R(44,45)                1.1135         estimate D2E/DX2                !
 ! R59   R(46,47)                1.1002         estimate D2E/DX2                !
 ! R60   R(46,48)                1.1017         estimate D2E/DX2                !
 ! R61   R(51,52)                1.4042         estimate D2E/DX2                !
 ! R62   R(51,53)                1.4033         estimate D2E/DX2                !
 ! R63   R(52,54)                1.3965         estimate D2E/DX2                !
 ! R64   R(52,55)                1.0948         estimate D2E/DX2                !
 ! R65   R(53,56)                1.3968         estimate D2E/DX2                !
 ! R66   R(53,57)                1.0905         estimate D2E/DX2                !
 ! R67   R(54,58)                1.3962         estimate D2E/DX2                !
 ! R68   R(54,59)                1.0912         estimate D2E/DX2                !
 ! R69   R(56,58)                1.3952         estimate D2E/DX2                !
 ! R70   R(56,60)                1.0923         estimate D2E/DX2                !
 ! R71   R(58,61)                1.0922         estimate D2E/DX2                !
 ! R72   R(62,63)                1.07           estimate D2E/DX2                !
 ! R73   R(62,64)                1.07           estimate D2E/DX2                !
 ! R74   R(62,65)                1.07           estimate D2E/DX2                !
 ! R75   R(66,67)                1.07           estimate D2E/DX2                !
 ! R76   R(66,68)                1.07           estimate D2E/DX2                !
 ! R77   R(66,69)                1.07           estimate D2E/DX2                !
 ! A1    A(2,1,3)              106.8713         estimate D2E/DX2                !
 ! A2    A(2,1,44)             115.1597         estimate D2E/DX2                !
 ! A3    A(2,1,46)             107.1908         estimate D2E/DX2                !
 ! A4    A(3,1,44)             110.5228         estimate D2E/DX2                !
 ! A5    A(3,1,46)             104.9883         estimate D2E/DX2                !
 ! A6    A(44,1,46)            111.5018         estimate D2E/DX2                !
 ! A7    A(1,2,5)              121.5883         estimate D2E/DX2                !
 ! A8    A(1,2,66)             116.1669         estimate D2E/DX2                !
 ! A9    A(5,2,66)             122.2137         estimate D2E/DX2                !
 ! A10   A(1,3,4)              120.8588         estimate D2E/DX2                !
 ! A11   A(1,3,62)             116.5293         estimate D2E/DX2                !
 ! A12   A(4,3,62)             122.5906         estimate D2E/DX2                !
 ! A13   A(3,4,49)             123.9276         estimate D2E/DX2                !
 ! A14   A(2,5,49)             131.0016         estimate D2E/DX2                !
 ! A15   A(8,9,12)             104.0048         estimate D2E/DX2                !
 ! A16   A(8,9,13)             118.9007         estimate D2E/DX2                !
 ! A17   A(8,9,20)             104.8613         estimate D2E/DX2                !
 ! A18   A(12,9,13)            117.9037         estimate D2E/DX2                !
 ! A19   A(12,9,20)            103.1258         estimate D2E/DX2                !
 ! A20   A(13,9,20)            106.2637         estimate D2E/DX2                !
 ! A21   A(13,9,49)            136.0645         estimate D2E/DX2                !
 ! A22   A(20,9,49)            117.4986         estimate D2E/DX2                !
 ! A23   A(6,10,14)            103.2753         estimate D2E/DX2                !
 ! A24   A(6,10,15)            118.1869         estimate D2E/DX2                !
 ! A25   A(6,10,19)            102.6535         estimate D2E/DX2                !
 ! A26   A(14,10,15)           118.7194         estimate D2E/DX2                !
 ! A27   A(14,10,19)           104.1539         estimate D2E/DX2                !
 ! A28   A(15,10,19)           107.9139         estimate D2E/DX2                !
 ! A29   A(15,10,49)           142.9559         estimate D2E/DX2                !
 ! A30   A(19,10,49)           109.1027         estimate D2E/DX2                !
 ! A31   A(7,11,16)            105.6211         estimate D2E/DX2                !
 ! A32   A(7,11,17)            116.2403         estimate D2E/DX2                !
 ! A33   A(7,11,18)            104.7472         estimate D2E/DX2                !
 ! A34   A(16,11,17)           117.5739         estimate D2E/DX2                !
 ! A35   A(16,11,18)           105.4178         estimate D2E/DX2                !
 ! A36   A(16,11,49)            59.3757         estimate D2E/DX2                !
 ! A37   A(17,11,18)           106.016          estimate D2E/DX2                !
 ! A38   A(17,11,49)           140.3324         estimate D2E/DX2                !
 ! A39   A(18,11,49)           112.8411         estimate D2E/DX2                !
 ! A40   A(11,18,21)           109.4119         estimate D2E/DX2                !
 ! A41   A(11,18,22)           110.0979         estimate D2E/DX2                !
 ! A42   A(11,18,23)           108.056          estimate D2E/DX2                !
 ! A43   A(21,18,22)           110.2322         estimate D2E/DX2                !
 ! A44   A(21,18,23)           109.5078         estimate D2E/DX2                !
 ! A45   A(22,18,23)           109.4993         estimate D2E/DX2                !
 ! A46   A(10,19,24)           108.1878         estimate D2E/DX2                !
 ! A47   A(10,19,25)           109.0604         estimate D2E/DX2                !
 ! A48   A(10,19,26)           109.6289         estimate D2E/DX2                !
 ! A49   A(24,19,25)           109.8637         estimate D2E/DX2                !
 ! A50   A(24,19,26)           109.9513         estimate D2E/DX2                !
 ! A51   A(25,19,26)           110.1152         estimate D2E/DX2                !
 ! A52   A(9,20,27)            109.5882         estimate D2E/DX2                !
 ! A53   A(9,20,28)            109.0869         estimate D2E/DX2                !
 ! A54   A(9,20,29)            108.607          estimate D2E/DX2                !
 ! A55   A(27,20,28)           109.79           estimate D2E/DX2                !
 ! A56   A(27,20,29)           110.003          estimate D2E/DX2                !
 ! A57   A(28,20,29)           109.7425         estimate D2E/DX2                !
 ! A58   A(31,30,46)           107.5859         estimate D2E/DX2                !
 ! A59   A(31,30,50)           106.2048         estimate D2E/DX2                !
 ! A60   A(31,30,51)           114.429          estimate D2E/DX2                !
 ! A61   A(46,30,50)           106.2033         estimate D2E/DX2                !
 ! A62   A(46,30,51)           114.8468         estimate D2E/DX2                !
 ! A63   A(50,30,51)           106.9193         estimate D2E/DX2                !
 ! A64   A(30,31,32)           111.3159         estimate D2E/DX2                !
 ! A65   A(30,31,33)           109.2015         estimate D2E/DX2                !
 ! A66   A(30,31,42)           110.1601         estimate D2E/DX2                !
 ! A67   A(32,31,33)           105.5355         estimate D2E/DX2                !
 ! A68   A(32,31,42)           110.6428         estimate D2E/DX2                !
 ! A69   A(33,31,42)           109.876          estimate D2E/DX2                !
 ! A70   A(36,34,37)           122.8805         estimate D2E/DX2                !
 ! A71   A(36,34,44)           118.479          estimate D2E/DX2                !
 ! A72   A(37,34,44)           118.597          estimate D2E/DX2                !
 ! A73   A(36,35,38)           121.0201         estimate D2E/DX2                !
 ! A74   A(36,35,43)           122.5            estimate D2E/DX2                !
 ! A75   A(38,35,43)           116.4092         estimate D2E/DX2                !
 ! A76   A(34,36,35)           117.8656         estimate D2E/DX2                !
 ! A77   A(34,36,39)           122.4188         estimate D2E/DX2                !
 ! A78   A(35,36,39)           119.7101         estimate D2E/DX2                !
 ! A79   A(31,42,43)           110.3559         estimate D2E/DX2                !
 ! A80   A(31,42,44)           114.7837         estimate D2E/DX2                !
 ! A81   A(43,42,44)           116.859          estimate D2E/DX2                !
 ! A82   A(35,43,42)           118.1579         estimate D2E/DX2                !
 ! A83   A(1,44,34)            113.2324         estimate D2E/DX2                !
 ! A84   A(1,44,42)            111.9269         estimate D2E/DX2                !
 ! A85   A(1,44,45)            105.525          estimate D2E/DX2                !
 ! A86   A(34,44,42)           108.3531         estimate D2E/DX2                !
 ! A87   A(34,44,45)           108.8049         estimate D2E/DX2                !
 ! A88   A(42,44,45)           108.8638         estimate D2E/DX2                !
 ! A89   A(1,46,30)            112.8128         estimate D2E/DX2                !
 ! A90   A(1,46,47)            108.9658         estimate D2E/DX2                !
 ! A91   A(1,46,48)            107.7068         estimate D2E/DX2                !
 ! A92   A(30,46,47)           110.9202         estimate D2E/DX2                !
 ! A93   A(30,46,48)           109.2313         estimate D2E/DX2                !
 ! A94   A(47,46,48)           106.9882         estimate D2E/DX2                !
 ! A95   A(4,49,5)              78.9409         estimate D2E/DX2                !
 ! A96   A(4,49,6)              84.2615         estimate D2E/DX2                !
 ! A97   A(4,49,7)             133.5211         estimate D2E/DX2                !
 ! A98   A(4,49,8)              83.2077         estimate D2E/DX2                !
 ! A99   A(4,49,9)             114.8618         estimate D2E/DX2                !
 ! A100  A(4,49,10)             85.2487         estimate D2E/DX2                !
 ! A101  A(4,49,11)            103.2668         estimate D2E/DX2                !
 ! A102  A(4,49,12)            146.9258         estimate D2E/DX2                !
 ! A103  A(4,49,14)             85.3153         estimate D2E/DX2                !
 ! A104  A(5,49,6)             140.0919         estimate D2E/DX2                !
 ! A105  A(5,49,7)              85.3623         estimate D2E/DX2                !
 ! A106  A(5,49,8)              76.8017         estimate D2E/DX2                !
 ! A107  A(5,49,9)              88.9025         estimate D2E/DX2                !
 ! A108  A(5,49,10)            163.5736         estimate D2E/DX2                !
 ! A109  A(5,49,11)             77.0602         estimate D2E/DX2                !
 ! A110  A(5,49,12)             97.7876         estimate D2E/DX2                !
 ! A111  A(5,49,14)            148.5242         estimate D2E/DX2                !
 ! A112  A(6,49,7)              80.4683         estimate D2E/DX2                !
 ! A113  A(6,49,8)             136.7838         estimate D2E/DX2                !
 ! A114  A(6,49,9)             130.9594         estimate D2E/DX2                !
 ! A115  A(6,49,11)             71.9647         estimate D2E/DX2                !
 ! A116  A(6,49,12)            115.2172         estimate D2E/DX2                !
 ! A117  A(6,49,14)             63.4731         estimate D2E/DX2                !
 ! A118  A(7,49,8)             135.0362         estimate D2E/DX2                !
 ! A119  A(7,49,9)             108.1941         estimate D2E/DX2                !
 ! A120  A(7,49,10)            102.6375         estimate D2E/DX2                !
 ! A121  A(7,49,12)             78.1439         estimate D2E/DX2                !
 ! A122  A(7,49,14)            124.4339         estimate D2E/DX2                !
 ! A123  A(8,49,10)            105.8955         estimate D2E/DX2                !
 ! A124  A(8,49,11)            151.2504         estimate D2E/DX2                !
 ! A125  A(8,49,12)             64.1901         estimate D2E/DX2                !
 ! A126  A(8,49,14)             74.3823         estimate D2E/DX2                !
 ! A127  A(9,49,10)            101.8879         estimate D2E/DX2                !
 ! A128  A(9,49,11)            135.8952         estimate D2E/DX2                !
 ! A129  A(9,49,14)             73.2013         estimate D2E/DX2                !
 ! A130  A(10,49,11)           102.5667         estimate D2E/DX2                !
 ! A131  A(10,49,12)            97.8955         estimate D2E/DX2                !
 ! A132  A(11,49,12)           108.0561         estimate D2E/DX2                !
 ! A133  A(11,49,14)           133.5233         estimate D2E/DX2                !
 ! A134  A(12,49,14)            80.8679         estimate D2E/DX2                !
 ! A135  A(30,51,52)           117.0767         estimate D2E/DX2                !
 ! A136  A(30,51,53)           124.5575         estimate D2E/DX2                !
 ! A137  A(52,51,53)           118.3173         estimate D2E/DX2                !
 ! A138  A(51,52,54)           120.8909         estimate D2E/DX2                !
 ! A139  A(51,52,55)           119.6508         estimate D2E/DX2                !
 ! A140  A(54,52,55)           119.4448         estimate D2E/DX2                !
 ! A141  A(51,53,56)           120.7238         estimate D2E/DX2                !
 ! A142  A(51,53,57)           120.9449         estimate D2E/DX2                !
 ! A143  A(56,53,57)           118.3164         estimate D2E/DX2                !
 ! A144  A(52,54,58)           120.2422         estimate D2E/DX2                !
 ! A145  A(52,54,59)           119.6554         estimate D2E/DX2                !
 ! A146  A(58,54,59)           120.1008         estimate D2E/DX2                !
 ! A147  A(53,56,58)           120.4425         estimate D2E/DX2                !
 ! A148  A(53,56,60)           119.278          estimate D2E/DX2                !
 ! A149  A(58,56,60)           120.279          estimate D2E/DX2                !
 ! A150  A(54,58,56)           119.3514         estimate D2E/DX2                !
 ! A151  A(54,58,61)           120.2665         estimate D2E/DX2                !
 ! A152  A(56,58,61)           120.3814         estimate D2E/DX2                !
 ! A153  A(3,62,63)            109.4712         estimate D2E/DX2                !
 ! A154  A(3,62,64)            109.4712         estimate D2E/DX2                !
 ! A155  A(3,62,65)            109.4712         estimate D2E/DX2                !
 ! A156  A(63,62,64)           109.4713         estimate D2E/DX2                !
 ! A157  A(63,62,65)           109.4712         estimate D2E/DX2                !
 ! A158  A(64,62,65)           109.4712         estimate D2E/DX2                !
 ! A159  A(2,66,67)            109.4712         estimate D2E/DX2                !
 ! A160  A(2,66,68)            109.4712         estimate D2E/DX2                !
 ! A161  A(2,66,69)            109.4712         estimate D2E/DX2                !
 ! A162  A(67,66,68)           109.4713         estimate D2E/DX2                !
 ! A163  A(67,66,69)           109.4712         estimate D2E/DX2                !
 ! A164  A(68,66,69)           109.4712         estimate D2E/DX2                !
 ! A165  L(31,32,40,38,-1)     183.8144         estimate D2E/DX2                !
 ! A166  L(31,33,41,3,-1)      177.0216         estimate D2E/DX2                !
 ! A167  L(31,32,40,38,-2)     177.7387         estimate D2E/DX2                !
 ! A168  L(31,33,41,3,-2)      181.9132         estimate D2E/DX2                !
 ! D1    D(3,1,2,5)            -44.7583         estimate D2E/DX2                !
 ! D2    D(3,1,2,66)           137.2276         estimate D2E/DX2                !
 ! D3    D(44,1,2,5)          -167.9333         estimate D2E/DX2                !
 ! D4    D(44,1,2,66)           14.0526         estimate D2E/DX2                !
 ! D5    D(46,1,2,5)            67.3722         estimate D2E/DX2                !
 ! D6    D(46,1,2,66)         -110.6419         estimate D2E/DX2                !
 ! D7    D(2,1,3,4)             58.4118         estimate D2E/DX2                !
 ! D8    D(2,1,3,62)          -123.2254         estimate D2E/DX2                !
 ! D9    D(44,1,3,4)          -175.5802         estimate D2E/DX2                !
 ! D10   D(44,1,3,62)            2.7826         estimate D2E/DX2                !
 ! D11   D(46,1,3,4)           -55.2239         estimate D2E/DX2                !
 ! D12   D(46,1,3,62)          123.1389         estimate D2E/DX2                !
 ! D13   D(2,1,44,34)           47.15           estimate D2E/DX2                !
 ! D14   D(2,1,44,42)          -75.6819         estimate D2E/DX2                !
 ! D15   D(2,1,44,45)          166.0528         estimate D2E/DX2                !
 ! D16   D(3,1,44,34)          -74.0616         estimate D2E/DX2                !
 ! D17   D(3,1,44,42)          163.1064         estimate D2E/DX2                !
 ! D18   D(3,1,44,45)           44.8412         estimate D2E/DX2                !
 ! D19   D(46,1,44,34)         169.5615         estimate D2E/DX2                !
 ! D20   D(46,1,44,42)          46.7296         estimate D2E/DX2                !
 ! D21   D(46,1,44,45)         -71.5357         estimate D2E/DX2                !
 ! D22   D(2,1,46,30)           76.9131         estimate D2E/DX2                !
 ! D23   D(2,1,46,47)          -46.7396         estimate D2E/DX2                !
 ! D24   D(2,1,46,48)         -162.4632         estimate D2E/DX2                !
 ! D25   D(3,1,46,30)         -169.676          estimate D2E/DX2                !
 ! D26   D(3,1,46,47)           66.6713         estimate D2E/DX2                !
 ! D27   D(3,1,46,48)          -49.0523         estimate D2E/DX2                !
 ! D28   D(44,1,46,30)         -49.9703         estimate D2E/DX2                !
 ! D29   D(44,1,46,47)        -173.623          estimate D2E/DX2                !
 ! D30   D(44,1,46,48)          70.6534         estimate D2E/DX2                !
 ! D31   D(1,2,5,49)            43.1215         estimate D2E/DX2                !
 ! D32   D(66,2,5,49)         -138.9852         estimate D2E/DX2                !
 ! D33   D(1,2,66,67)           41.8849         estimate D2E/DX2                !
 ! D34   D(1,2,66,68)          161.8849         estimate D2E/DX2                !
 ! D35   D(1,2,66,69)          -78.1151         estimate D2E/DX2                !
 ! D36   D(5,2,66,67)         -136.1157         estimate D2E/DX2                !
 ! D37   D(5,2,66,68)          -16.1157         estimate D2E/DX2                !
 ! D38   D(5,2,66,69)          103.8843         estimate D2E/DX2                !
 ! D39   D(1,3,4,49)           -66.0791         estimate D2E/DX2                !
 ! D40   D(62,3,4,49)          115.6595         estimate D2E/DX2                !
 ! D41   D(1,3,62,63)         -169.1124         estimate D2E/DX2                !
 ! D42   D(1,3,62,64)          -49.1124         estimate D2E/DX2                !
 ! D43   D(1,3,62,65)           70.8876         estimate D2E/DX2                !
 ! D44   D(4,3,62,63)            9.2195         estimate D2E/DX2                !
 ! D45   D(4,3,62,64)          129.2195         estimate D2E/DX2                !
 ! D46   D(4,3,62,65)         -110.7805         estimate D2E/DX2                !
 ! D47   D(3,4,49,5)            39.8009         estimate D2E/DX2                !
 ! D48   D(3,4,49,6)          -103.8254         estimate D2E/DX2                !
 ! D49   D(3,4,49,7)           -32.7879         estimate D2E/DX2                !
 ! D50   D(3,4,49,8)           117.6196         estimate D2E/DX2                !
 ! D51   D(3,4,49,9)           123.3659         estimate D2E/DX2                !
 ! D52   D(3,4,49,10)         -135.7217         estimate D2E/DX2                !
 ! D53   D(3,4,49,11)          -33.9089         estimate D2E/DX2                !
 ! D54   D(3,4,49,12)          127.1            estimate D2E/DX2                !
 ! D55   D(3,4,49,14)         -167.5851         estimate D2E/DX2                !
 ! D56   D(2,5,49,4)           -30.8209         estimate D2E/DX2                !
 ! D57   D(2,5,49,6)            36.0695         estimate D2E/DX2                !
 ! D58   D(2,5,49,7)           105.218          estimate D2E/DX2                !
 ! D59   D(2,5,49,8)          -116.3507         estimate D2E/DX2                !
 ! D60   D(2,5,49,9)          -146.4288         estimate D2E/DX2                !
 ! D61   D(2,5,49,10)          -14.8522         estimate D2E/DX2                !
 ! D62   D(2,5,49,11)           75.7277         estimate D2E/DX2                !
 ! D63   D(2,5,49,12)         -177.4407         estimate D2E/DX2                !
 ! D64   D(2,5,49,14)          -92.225          estimate D2E/DX2                !
 ! D65   D(8,9,20,27)          -61.0928         estimate D2E/DX2                !
 ! D66   D(8,9,20,28)          178.6812         estimate D2E/DX2                !
 ! D67   D(8,9,20,29)           59.1001         estimate D2E/DX2                !
 ! D68   D(12,9,20,27)          47.5079         estimate D2E/DX2                !
 ! D69   D(12,9,20,28)         -72.718          estimate D2E/DX2                !
 ! D70   D(12,9,20,29)         167.7008         estimate D2E/DX2                !
 ! D71   D(13,9,20,27)         172.1606         estimate D2E/DX2                !
 ! D72   D(13,9,20,28)          51.9346         estimate D2E/DX2                !
 ! D73   D(13,9,20,29)         -67.6465         estimate D2E/DX2                !
 ! D74   D(49,9,20,27)          -3.8208         estimate D2E/DX2                !
 ! D75   D(49,9,20,28)        -124.0468         estimate D2E/DX2                !
 ! D76   D(49,9,20,29)         116.3721         estimate D2E/DX2                !
 ! D77   D(13,9,49,4)           85.7655         estimate D2E/DX2                !
 ! D78   D(13,9,49,5)          163.037          estimate D2E/DX2                !
 ! D79   D(13,9,49,6)          -19.0852         estimate D2E/DX2                !
 ! D80   D(13,9,49,7)         -112.2084         estimate D2E/DX2                !
 ! D81   D(13,9,49,10)          -4.4783         estimate D2E/DX2                !
 ! D82   D(13,9,49,11)        -126.9355         estimate D2E/DX2                !
 ! D83   D(13,9,49,14)           9.2932         estimate D2E/DX2                !
 ! D84   D(20,9,49,4)          -99.7987         estimate D2E/DX2                !
 ! D85   D(20,9,49,5)          -22.5271         estimate D2E/DX2                !
 ! D86   D(20,9,49,6)          155.3506         estimate D2E/DX2                !
 ! D87   D(20,9,49,7)           62.2275         estimate D2E/DX2                !
 ! D88   D(20,9,49,10)         169.9575         estimate D2E/DX2                !
 ! D89   D(20,9,49,11)          47.5003         estimate D2E/DX2                !
 ! D90   D(20,9,49,14)        -176.2709         estimate D2E/DX2                !
 ! D91   D(6,10,19,24)          52.3127         estimate D2E/DX2                !
 ! D92   D(6,10,19,25)         -67.1537         estimate D2E/DX2                !
 ! D93   D(6,10,19,26)         172.2136         estimate D2E/DX2                !
 ! D94   D(14,10,19,24)        -55.1047         estimate D2E/DX2                !
 ! D95   D(14,10,19,25)       -174.5712         estimate D2E/DX2                !
 ! D96   D(14,10,19,26)         64.7962         estimate D2E/DX2                !
 ! D97   D(15,10,19,24)        177.858          estimate D2E/DX2                !
 ! D98   D(15,10,19,25)         58.3915         estimate D2E/DX2                !
 ! D99   D(15,10,19,26)        -62.2411         estimate D2E/DX2                !
 ! D100  D(49,10,19,24)         -0.6889         estimate D2E/DX2                !
 ! D101  D(49,10,19,25)       -120.1553         estimate D2E/DX2                !
 ! D102  D(49,10,19,26)        119.2121         estimate D2E/DX2                !
 ! D103  D(15,10,49,4)           0.1555         estimate D2E/DX2                !
 ! D104  D(15,10,49,5)         -15.5644         estimate D2E/DX2                !
 ! D105  D(15,10,49,7)        -133.4363         estimate D2E/DX2                !
 ! D106  D(15,10,49,8)          81.6986         estimate D2E/DX2                !
 ! D107  D(15,10,49,9)         114.5886         estimate D2E/DX2                !
 ! D108  D(15,10,49,11)       -102.401          estimate D2E/DX2                !
 ! D109  D(15,10,49,12)        147.0194         estimate D2E/DX2                !
 ! D110  D(19,10,49,4)         177.8598         estimate D2E/DX2                !
 ! D111  D(19,10,49,5)         162.14           estimate D2E/DX2                !
 ! D112  D(19,10,49,7)          44.2681         estimate D2E/DX2                !
 ! D113  D(19,10,49,8)        -100.597          estimate D2E/DX2                !
 ! D114  D(19,10,49,9)         -67.707          estimate D2E/DX2                !
 ! D115  D(19,10,49,11)         75.3034         estimate D2E/DX2                !
 ! D116  D(19,10,49,12)        -35.2762         estimate D2E/DX2                !
 ! D117  D(7,11,18,21)         119.6589         estimate D2E/DX2                !
 ! D118  D(7,11,18,22)          -1.6322         estimate D2E/DX2                !
 ! D119  D(7,11,18,23)        -121.1791         estimate D2E/DX2                !
 ! D120  D(16,11,18,21)          8.4706         estimate D2E/DX2                !
 ! D121  D(16,11,18,22)       -112.8205         estimate D2E/DX2                !
 ! D122  D(16,11,18,23)        127.6326         estimate D2E/DX2                !
 ! D123  D(17,11,18,21)       -116.8903         estimate D2E/DX2                !
 ! D124  D(17,11,18,22)        121.8185         estimate D2E/DX2                !
 ! D125  D(17,11,18,23)          2.2716         estimate D2E/DX2                !
 ! D126  D(49,11,18,21)         71.2624         estimate D2E/DX2                !
 ! D127  D(49,11,18,22)        -50.0287         estimate D2E/DX2                !
 ! D128  D(49,11,18,23)       -169.5756         estimate D2E/DX2                !
 ! D129  D(16,11,49,4)           2.1537         estimate D2E/DX2                !
 ! D130  D(16,11,49,5)         -72.9904         estimate D2E/DX2                !
 ! D131  D(16,11,49,6)          81.5037         estimate D2E/DX2                !
 ! D132  D(16,11,49,8)         -98.0495         estimate D2E/DX2                !
 ! D133  D(16,11,49,9)        -147.606          estimate D2E/DX2                !
 ! D134  D(16,11,49,10)         90.1691         estimate D2E/DX2                !
 ! D135  D(16,11,49,12)       -167.0808         estimate D2E/DX2                !
 ! D136  D(16,11,49,14)         98.3654         estimate D2E/DX2                !
 ! D137  D(17,11,49,4)          99.5563         estimate D2E/DX2                !
 ! D138  D(17,11,49,5)          24.4121         estimate D2E/DX2                !
 ! D139  D(17,11,49,6)         178.9063         estimate D2E/DX2                !
 ! D140  D(17,11,49,8)          -0.647          estimate D2E/DX2                !
 ! D141  D(17,11,49,9)         -50.2035         estimate D2E/DX2                !
 ! D142  D(17,11,49,10)       -172.4284         estimate D2E/DX2                !
 ! D143  D(17,11,49,12)        -69.6783         estimate D2E/DX2                !
 ! D144  D(17,11,49,14)       -164.232          estimate D2E/DX2                !
 ! D145  D(18,11,49,4)         -92.7736         estimate D2E/DX2                !
 ! D146  D(18,11,49,5)        -167.9177         estimate D2E/DX2                !
 ! D147  D(18,11,49,6)         -13.4236         estimate D2E/DX2                !
 ! D148  D(18,11,49,8)         167.0232         estimate D2E/DX2                !
 ! D149  D(18,11,49,9)         117.4667         estimate D2E/DX2                !
 ! D150  D(18,11,49,10)         -4.7582         estimate D2E/DX2                !
 ! D151  D(18,11,49,12)         97.9919         estimate D2E/DX2                !
 ! D152  D(18,11,49,14)          3.4381         estimate D2E/DX2                !
 ! D153  D(46,30,31,32)        177.4118         estimate D2E/DX2                !
 ! D154  D(46,30,31,33)         61.2864         estimate D2E/DX2                !
 ! D155  D(46,30,31,42)        -59.4688         estimate D2E/DX2                !
 ! D156  D(50,30,31,32)         64.0242         estimate D2E/DX2                !
 ! D157  D(50,30,31,33)        -52.1011         estimate D2E/DX2                !
 ! D158  D(50,30,31,42)       -172.8564         estimate D2E/DX2                !
 ! D159  D(51,30,31,32)        -53.6778         estimate D2E/DX2                !
 ! D160  D(51,30,31,33)       -169.8031         estimate D2E/DX2                !
 ! D161  D(51,30,31,42)         69.4416         estimate D2E/DX2                !
 ! D162  D(31,30,46,1)          55.334          estimate D2E/DX2                !
 ! D163  D(31,30,46,47)        177.8991         estimate D2E/DX2                !
 ! D164  D(31,30,46,48)        -64.4143         estimate D2E/DX2                !
 ! D165  D(50,30,46,1)         168.7226         estimate D2E/DX2                !
 ! D166  D(50,30,46,47)        -68.7123         estimate D2E/DX2                !
 ! D167  D(50,30,46,48)         48.9743         estimate D2E/DX2                !
 ! D168  D(51,30,46,1)         -73.3381         estimate D2E/DX2                !
 ! D169  D(51,30,46,47)         49.227          estimate D2E/DX2                !
 ! D170  D(51,30,46,48)        166.9136         estimate D2E/DX2                !
 ! D171  D(31,30,51,52)        171.7323         estimate D2E/DX2                !
 ! D172  D(31,30,51,53)         -5.6825         estimate D2E/DX2                !
 ! D173  D(46,30,51,52)        -63.0959         estimate D2E/DX2                !
 ! D174  D(46,30,51,53)        119.4893         estimate D2E/DX2                !
 ! D175  D(50,30,51,52)         54.4385         estimate D2E/DX2                !
 ! D176  D(50,30,51,53)       -122.9763         estimate D2E/DX2                !
 ! D177  D(30,31,42,43)       -164.4365         estimate D2E/DX2                !
 ! D178  D(30,31,42,44)         60.969          estimate D2E/DX2                !
 ! D179  D(32,31,42,43)        -40.9244         estimate D2E/DX2                !
 ! D180  D(32,31,42,44)       -175.5188         estimate D2E/DX2                !
 ! D181  D(33,31,42,43)         75.2137         estimate D2E/DX2                !
 ! D182  D(33,31,42,44)        -59.3808         estimate D2E/DX2                !
 ! D183  D(37,34,36,35)       -178.6106         estimate D2E/DX2                !
 ! D184  D(37,34,36,39)          0.5394         estimate D2E/DX2                !
 ! D185  D(44,34,36,35)          3.8256         estimate D2E/DX2                !
 ! D186  D(44,34,36,39)       -177.0244         estimate D2E/DX2                !
 ! D187  D(36,34,44,1)        -157.9599         estimate D2E/DX2                !
 ! D188  D(36,34,44,42)        -33.1705         estimate D2E/DX2                !
 ! D189  D(36,34,44,45)         85.0472         estimate D2E/DX2                !
 ! D190  D(37,34,44,1)          24.3702         estimate D2E/DX2                !
 ! D191  D(37,34,44,42)        149.1596         estimate D2E/DX2                !
 ! D192  D(37,34,44,45)        -92.6227         estimate D2E/DX2                !
 ! D193  D(38,35,36,34)       -167.6339         estimate D2E/DX2                !
 ! D194  D(38,35,36,39)         13.1922         estimate D2E/DX2                !
 ! D195  D(43,35,36,34)         15.5366         estimate D2E/DX2                !
 ! D196  D(43,35,36,39)       -163.6374         estimate D2E/DX2                !
 ! D197  D(36,35,43,42)         -0.2593         estimate D2E/DX2                !
 ! D198  D(38,35,43,42)       -177.2258         estimate D2E/DX2                !
 ! D199  D(31,42,43,35)       -167.4332         estimate D2E/DX2                !
 ! D200  D(44,42,43,35)        -33.876          estimate D2E/DX2                !
 ! D201  D(31,42,44,1)         -54.0464         estimate D2E/DX2                !
 ! D202  D(31,42,44,34)       -179.6062         estimate D2E/DX2                !
 ! D203  D(31,42,44,45)         62.2136         estimate D2E/DX2                !
 ! D204  D(43,42,44,1)         174.4018         estimate D2E/DX2                !
 ! D205  D(43,42,44,34)         48.8419         estimate D2E/DX2                !
 ! D206  D(43,42,44,45)        -69.3383         estimate D2E/DX2                !
 ! D207  D(30,51,52,54)       -175.7718         estimate D2E/DX2                !
 ! D208  D(30,51,52,55)          2.8813         estimate D2E/DX2                !
 ! D209  D(53,51,52,54)          1.8098         estimate D2E/DX2                !
 ! D210  D(53,51,52,55)       -179.5371         estimate D2E/DX2                !
 ! D211  D(30,51,53,56)        175.4325         estimate D2E/DX2                !
 ! D212  D(30,51,53,57)         -5.9969         estimate D2E/DX2                !
 ! D213  D(52,51,53,56)         -1.9527         estimate D2E/DX2                !
 ! D214  D(52,51,53,57)        176.618          estimate D2E/DX2                !
 ! D215  D(51,52,54,58)         -0.4296         estimate D2E/DX2                !
 ! D216  D(51,52,54,59)        179.1047         estimate D2E/DX2                !
 ! D217  D(55,52,54,58)       -179.0855         estimate D2E/DX2                !
 ! D218  D(55,52,54,59)          0.4488         estimate D2E/DX2                !
 ! D219  D(51,53,56,58)          0.7214         estimate D2E/DX2                !
 ! D220  D(51,53,56,60)       -179.5372         estimate D2E/DX2                !
 ! D221  D(57,53,56,58)       -177.8861         estimate D2E/DX2                !
 ! D222  D(57,53,56,60)          1.8553         estimate D2E/DX2                !
 ! D223  D(52,54,58,56)         -0.8421         estimate D2E/DX2                !
 ! D224  D(52,54,58,61)        179.4537         estimate D2E/DX2                !
 ! D225  D(59,54,58,56)        179.6257         estimate D2E/DX2                !
 ! D226  D(59,54,58,61)         -0.0786         estimate D2E/DX2                !
 ! D227  D(53,56,58,54)          0.6982         estimate D2E/DX2                !
 ! D228  D(53,56,58,61)       -179.598          estimate D2E/DX2                !
 ! D229  D(60,56,58,54)       -179.0407         estimate D2E/DX2                !
 ! D230  D(60,56,58,61)          0.6632         estimate D2E/DX2                !
 --------------------------------------------------------------------------------
 Trust Radius=3.00D-01 FncErr=1.00D-07 GrdErr=1.00D-06 EigMax=2.50D+02 EigMin=1.00D-04
 Number of steps in this run=    414 maximum allowed number of steps=    414.
 GradGradGradGradGradGradGradGradGradGradGradGradGradGradGradGradGradGrad

 Leave Link  103 at Mon Mar  3 15:33:48 2025, MaxMem= 82678120448 cpu:               1.7 elap:               0.5
 (Enter /sysapps/ubuntu-applications/gaussian-new/avx/g16/l202.exe)
 Stoichiometry    C23H18F9N4O11S3Sc
 Framework group  C1[X(C23H18F9N4O11S3Sc)]
 Deg. of freedom   201
 Full point group                 C1      NOp   1
 Largest Abelian subgroup         C1      NOp   1
 Largest concise Abelian subgroup C1      NOp   1
                         Standard orientation:                         
 ---------------------------------------------------------------------
 Center     Atomic      Atomic             Coordinates (Angstroms)
 Number     Number       Type             X           Y           Z
 ---------------------------------------------------------------------
      1          6           0       -1.877756   -0.946094    0.729227
      2          6           0       -1.445752   -0.337924   -0.607086
      3          6           0       -0.613509   -1.456918    1.412370
      4          8           0        0.324317   -0.691466    1.665299
      5          8           0       -0.462539    0.406584   -0.692006
      6          8           0        3.018492   -1.266195    0.727066
      7          8           0        2.154059   -0.306590   -1.789453
      8          8           0        0.650121    2.162228    1.122432
      9         16           0        1.570226    3.057478    0.360338
     10         16           0        3.703042   -0.474413    1.801446
     11         16           0        1.602731   -1.696805   -1.951730
     12          8           0        2.299228    2.124057   -0.570029
     13          8           0        2.345370    4.031770    1.079470
     14          8           0        2.883654    0.774811    1.882540
     15          8           0        4.056838   -1.148087    3.019710
     16          8           0        0.815451   -1.962527   -0.716551
     17          8           0        0.977914   -1.991326   -3.218076
     18          6           0        3.098356   -2.818923   -1.840013
     19          6           0        5.260471    0.061282    0.977522
     20          6           0        0.473747    4.006213   -0.773929
     21          9           0        2.952118   -3.643122   -0.823701
     22          9           0        4.191804   -2.101627   -1.690672
     23          9           0        3.175077   -3.510089   -2.959717
     24          9           0        4.943458    0.640743   -0.166690
     25          9           0        6.012805   -0.996162    0.750454
     26          9           0        5.899376    0.913875    1.751010
     27          9           0       -0.147645    3.174275   -1.586552
     28          9           0        1.204535    4.850690   -1.473372
     29          9           0       -0.407266    4.672559   -0.049106
     30          6           0       -3.776466    0.706564    1.244637
     31          6           0       -4.724182   -0.519047    1.287059
     32          6           0       -6.122069   -0.129303    0.990160
     33          6           0       -4.749282   -1.073445    2.675452
     34          6           0       -2.597914   -3.100465   -0.423140
     35          6           0       -4.952072   -3.555298   -0.472609
     36          6           0       -3.592624   -3.846254   -0.919321
     37          1           0       -1.552751   -3.232689   -0.717585
     38          1           0       -5.773622   -4.246256   -0.680711
     39          1           0       -3.420792   -4.642051   -1.645524
     40          7           0       -7.211482    0.226074    0.830742
     41          7           0       -4.717286   -1.547707    3.731299
     42          7           0       -4.266487   -1.540227    0.354126
     43          7           0       -5.262838   -2.461669    0.126385
     44          6           0       -2.927726   -2.067406    0.629018
     45          1           0       -2.933057   -2.560787    1.627219
     46          6           0       -2.375052    0.221123    1.625469
     47          1           0       -1.647236    1.044686    1.576468
     48          1           0       -2.385817   -0.137375    2.667123
     49         21           0        1.501803    0.262766    0.187807
     50          1           0       -4.101742    1.375002    2.057655
     51          6           0       -3.846107    1.514169   -0.049330
     52          6           0       -3.148123    2.732186   -0.080914
     53          6           0       -4.596203    1.147350   -1.177202
     54          6           0       -3.228418    3.575973   -1.190765
     55          1           0       -2.549902    3.036219    0.784156
     56          6           0       -4.678354    1.993329   -2.285581
     57          1           0       -5.110132    0.186548   -1.220609
     58          6           0       -4.001892    3.213502   -2.295232
     59          1           0       -2.689302    4.524694   -1.187835
     60          1           0       -5.275105    1.687585   -3.147904
     61          1           0       -4.072108    3.877199   -3.159798
     62          6           0       -0.595450   -2.813986    1.761603
     63          1           0        0.246018   -3.008557    2.393246
     64          1           0       -1.497013   -3.060221    2.282614
     65          1           0       -0.521568   -3.409329    0.875597
     66          6           0       -2.252288   -0.639354   -1.712781
     67          1           0       -3.282365   -0.583743   -1.428617
     68          1           0       -2.060088    0.063237   -2.496570
     69          1           0       -2.030220   -1.627705   -2.057379
 ---------------------------------------------------------------------
 Rotational constants (GHZ):           0.0801247           0.0441534           0.0364470
 Leave Link  202 at Mon Mar  3 15:33:48 2025, MaxMem= 82678120448 cpu:               2.1 elap:               0.2
 (Enter /sysapps/ubuntu-applications/gaussian-new/avx/g16/l301.exe)
 General basis read from cards:  (5D, 7F)
 Centers:      37     38     39     45     47     48     50     55     57     59
 Centers:      60     61     63     64     65     67     68     69
 S 3 1.00
     Exponent=  1.3010701000D+01 Coefficients=  1.9682158000D-02
     Exponent=  1.9622572000D+00 Coefficients=  1.3796524000D-01
     Exponent=  4.4453796000D-01 Coefficients=  4.7831935000D-01
 S 1 1.00
     Exponent=  1.2194962000D-01 Coefficients=  1.0000000000D+00
 P 1 1.00
     Exponent=  8.0000000000D-01 Coefficients=  1.0000000000D+00
 ****
 Centers:       1      2      3     18     19     20     30     31     32     33
 Centers:      34     35     36     44     46     51     52     53     54     56
 Centers:      58     62     66
 S 5 1.00
     Exponent=  1.2384016938D+03 Coefficients=  5.4568832082D-03
     Exponent=  1.8629004992D+02 Coefficients=  4.0638409211D-02
     Exponent=  4.2251176346D+01 Coefficients=  1.8025593888D-01
     Exponent=  1.1676557932D+01 Coefficients=  4.6315121755D-01
     Exponent=  3.5930506482D+00 Coefficients=  4.4087173314D-01
 S 1 1.00
     Exponent=  4.0245147363D-01 Coefficients=  1.0000000000D+00
 S 1 1.00
     Exponent=  1.3090182668D-01 Coefficients=  1.0000000000D+00
 P 3 1.00
     Exponent=  9.4680970621D+00 Coefficients=  3.8387871728D-02
     Exponent=  2.0103545142D+00 Coefficients=  2.1117025112D-01
     Exponent=  5.4771004707D-01 Coefficients=  5.1328172114D-01
 P 1 1.00
     Exponent=  1.5268613795D-01 Coefficients=  1.0000000000D+00
 D 1 1.00
     Exponent=  8.0000000000D-01 Coefficients=  1.0000000000D+00
 ****
 Centers:      40     41     42     43
 S 5 1.00
     Exponent=  1.7128415853D+03 Coefficients= -5.3934125305D-03
     Exponent=  2.5764812677D+02 Coefficients= -4.0221581118D-02
     Exponent=  5.8458245853D+01 Coefficients= -1.7931144990D-01
     Exponent=  1.6198367905D+01 Coefficients= -4.6376317823D-01
     Exponent=  5.0052600809D+00 Coefficients= -4.4171422662D-01
 S 1 1.00
     Exponent=  5.8731856571D-01 Coefficients=  1.0000000000D+00
 S 1 1.00
     Exponent=  1.8764592253D-01 Coefficients=  1.0000000000D+00
 P 3 1.00
     Exponent=  1.3571470233D+01 Coefficients= -4.0072398852D-02
     Exponent=  2.9257372874D+00 Coefficients= -2.1807045028D-01
     Exponent=  7.9927750754D-01 Coefficients= -5.1294466049D-01
 P 1 1.00
     Exponent=  2.1954348034D-01 Coefficients=  1.0000000000D+00
 D 1 1.00
     Exponent=  1.0000000000D+00 Coefficients=  1.0000000000D+00
 ****
 Centers:       4      5      6      7      8     12     13     14     15     16
 Centers:      17
 S 5 1.00
     Exponent=  2.2661767785D+03 Coefficients= -5.3431809926D-03
     Exponent=  3.4087010191D+02 Coefficients= -3.9890039230D-02
     Exponent=  7.7363135167D+01 Coefficients= -1.7853911985D-01
     Exponent=  2.1479644940D+01 Coefficients= -4.6427684959D-01
     Exponent=  6.6589433124D+00 Coefficients= -4.4309745172D-01
 S 1 1.00
     Exponent=  8.0975975668D-01 Coefficients=  1.0000000000D+00
 S 1 1.00
     Exponent=  2.5530772234D-01 Coefficients=  1.0000000000D+00
 P 3 1.00
     Exponent=  1.7721504317D+01 Coefficients=  4.3394573193D-02
     Exponent=  3.8635505440D+00 Coefficients=  2.3094120765D-01
     Exponent=  1.0480920883D+00 Coefficients=  5.1375311064D-01
 P 1 1.00
     Exponent=  2.7641544411D-01 Coefficients=  1.0000000000D+00
 D 1 1.00
     Exponent=  1.2000000000D+00 Coefficients=  1.0000000000D+00
 ****
 Centers:      21     22     23     24     25     26     27     28     29
 S 5 1.00
     Exponent=  2.8948325990D+03 Coefficients= -5.3408255515D-03
     Exponent=  4.3541939120D+02 Coefficients= -3.9904258866D-02
     Exponent=  9.8843328866D+01 Coefficients= -1.7912768038D-01
     Exponent=  2.7485198001D+01 Coefficients= -4.6758090825D-01
     Exponent=  8.5405498171D+00 Coefficients= -4.4653131020D-01
 S 1 1.00
     Exponent=  1.0654578038D+00 Coefficients=  1.0000000000D+00
 S 1 1.00
     Exponent=  3.3247346748D-01 Coefficients=  1.0000000000D+00
 P 3 1.00
     Exponent=  2.2696633924D+01 Coefficients= -4.5212874436D-02
     Exponent=  4.9872339257D+00 Coefficients= -2.3754317067D-01
     Exponent=  1.3491613954D+00 Coefficients= -5.1287353587D-01
 P 1 1.00
     Exponent=  3.4829881977D-01 Coefficients=  1.0000000000D+00
 D 1 1.00
     Exponent=  1.4000000000D+00 Coefficients=  1.0000000000D+00
 ****
 Centers:       9     10     11
 S 5 1.00
     Exponent=  9.1849303010D+03 Coefficients= -2.2294387756D-03
     Exponent=  1.3815105503D+03 Coefficients= -1.6683029937D-02
     Exponent=  3.1387147580D+02 Coefficients= -7.5262436116D-02
     Exponent=  8.8053870623D+01 Coefficients= -1.9376827038D-01
     Exponent=  2.7039914905D+01 Coefficients= -1.7718020803D-01
 S 3 1.00
     Exponent=  4.5648731303D+01 Coefficients= -1.0736062573D-01
     Exponent=  4.9664522326D+00 Coefficients=  6.5066293018D-01
     Exponent=  2.0116242047D+00 Coefficients=  5.9712155354D-01
 S 1 1.00
     Exponent=  3.5661077013D-01 Coefficients=  1.0000000000D+00
 S 1 1.00
     Exponent=  1.3507221477D-01 Coefficients=  1.0000000000D+00
 P 5 1.00
     Exponent=  2.6198233439D+02 Coefficients= -9.2729929822D-03
     Exponent=  6.1306894736D+01 Coefficients= -6.6547669241D-02
     Exponent=  1.9103729887D+01 Coefficients= -2.4828595903D-01
     Exponent=  6.6567720378D+00 Coefficients= -4.8703847402D-01
     Exponent=  2.3959635161D+00 Coefficients= -3.9337850312D-01
 P 1 1.00
     Exponent=  6.1776161679D-01 Coefficients=  1.0000000000D+00
 P 1 1.00
     Exponent=  1.6993376871D-01 Coefficients=  1.0000000000D+00
 D 1 1.00
     Exponent=  5.5000000000D-01 Coefficients=  1.0000000000D+00
 ****
 Centers:      49
 S 8 1.00
     Exponent=  1.9161291874D+05 Coefficients=  2.3076475942D-04
     Exponent=  2.8723850363D+04 Coefficients=  1.7890329946D-03
     Exponent=  6.5370116490D+03 Coefficients=  9.2990401140D-03
     Exponent=  1.8503097171D+03 Coefficients=  3.7739438011D-02
     Exponent=  6.0238855156D+02 Coefficients=  1.2227148359D-01
     Exponent=  2.1617324766D+02 Coefficients=  2.8814821470D-01
     Exponent=  8.3712517880D+01 Coefficients=  4.0517543099D-01
     Exponent=  3.2908707189D+01 Coefficients=  2.0566019623D-01
 S 4 1.00
     Exponent=  2.1134393234D+02 Coefficients= -2.4527991462D-02
     Exponent=  6.5128920139D+01 Coefficients= -1.1570158142D-01
     Exponent=  1.0034311535D+01 Coefficients=  5.5995283317D-01
     Exponent=  4.1596884597D+00 Coefficients=  5.6087765073D-01
 S 2 1.00
     Exponent=  6.0009041613D+00 Coefficients= -2.2840494325D-01
     Exponent=  9.8255784150D-01 Coefficients=  7.1948970378D-01
 S 1 1.00
     Exponent=  4.2483192773D-01 Coefficients=  1.0000000000D+00
 S 1 1.00
     Exponent=  7.7185462096D-02 Coefficients=  1.0000000000D+00
 S 1 1.00
     Exponent=  3.0147219702D-02 Coefficients=  1.0000000000D+00
 P 6 1.00
     Exponent=  9.4734122823D+02 Coefficients=  2.4737208744D-03
     Exponent=  2.2409699732D+02 Coefficients=  1.9742967060D-02
     Exponent=  7.1560334882D+01 Coefficients=  9.0357147549D-02
     Exponent=  2.6444824490D+01 Coefficients=  2.5201602503D-01
     Exponent=  1.0393798285D+01 Coefficients=  3.9675535929D-01
     Exponent=  4.1606304559D+00 Coefficients=  2.3208624517D-01
 P 3 1.00
     Exponent=  1.5565737135D+01 Coefficients= -2.7129423974D-02
     Exponent=  2.1121544865D+00 Coefficients=  5.5109256629D-01
     Exponent=  8.4184709021D-01 Coefficients=  1.0090635806D+00
 P 1 1.00
     Exponent=  3.2297542652D-01 Coefficients=  1.0000000000D+00
 P 1 1.00
     Exponent=  8.9748000000D-02 Coefficients=  1.0000000000D+00
 D 4 1.00
     Exponent=  3.0989390993D+01 Coefficients=  1.1902837431D-02
     Exponent=  8.6905465069D+00 Coefficients=  6.7655856850D-02
     Exponent=  2.9520256337D+00 Coefficients=  2.1332539722D-01
     Exponent=  1.0761910745D+00 Coefficients=  3.8391075578D-01
 D 1 1.00
     Exponent=  3.8338915095D-01 Coefficients=  4.3354716259D-01
 D 1 1.00
     Exponent=  1.2534686113D-01 Coefficients=  2.4509263822D-01
 D 1 1.00
     Exponent=  4.1000000000D-02 Coefficients=  1.0000000000D+00
 F 1 1.00
     Exponent=  3.4500000000D-01 Coefficients=  1.0000000000D+00
 ****
 Ernie: Thresh=  0.10000D-02 Tol=  0.10000D-05 Strict=F.
 There are   904 symmetry adapted cartesian basis functions of A   symmetry.
 There are   847 symmetry adapted basis functions of A   symmetry.
   847 basis functions,  1514 primitive gaussians,   904 cartesian basis functions
   211 alpha electrons      211 beta electrons
       nuclear repulsion energy     10130.0224905349 Hartrees.
 IExCor= 7252 DFT=T Ex+Corr=MN15 ExCW=0 ScaHFX=  0.440000
 ScaDFX=  1.000000  1.000000  1.000000  1.000000 ScalE2=  1.000000  1.000000
 IRadAn=      5 IRanWt=     -1 IRanGd=            0 ICorTp=0 IEmpDi=  4
 NAtoms=   69 NActive=   69 NUniq=   69 SFac= 1.00D+00 NAtFMM=   60 NAOKFM=T Big=T
 Integral buffers will be    131072 words long.
 Raffenetti 2 integral format.
 Two-electron integral symmetry is turned on.
 ------------------------------------------------------------------------------
 Polarizable Continuum Model (PCM)
 =================================
 Model                : PCM.
 Atomic radii         : SMD-Coulomb.
 Polarization charges : Total charges.
 Charge compensation  : None.
 Solution method      : On-the-fly selection.
 Cavity type          : VdW (van der Waals Surface) (Alpha=1.000).
 Cavity algorithm     : GePol (No added spheres)
                        Default sphere list used, NSphG=   69.
                        Lebedev-Laikov grids with approx.  5.0 points / Ang**2.
                        Smoothing algorithm: York/Karplus (Gamma=1.0000).
                        Polarization charges: spherical gaussians, with
                                              point-specific exponents (IZeta= 3).
                        Self-potential: point-specific (ISelfS= 7).
                        Self-field    : sphere-specific E.n sum rule (ISelfD= 2).
 1st derivatives      : Analytical E(r).r(x)/FMM algorithm (CHGder, D1EAlg=3).
                        Cavity 1st derivative terms included.
 Solvent              : DiChloroEthane, Eps=  10.125000 Eps(inf)=   2.087447
 ------------------------------------------------------------------------------
 GePol: Number of generator spheres                  =      69
 GePol: Total number of spheres                      =      69
 GePol: Number of exposed spheres                    =      68 ( 98.55%)
 GePol: Number of points                             =    4693
 GePol: Average weight of points                     =       0.13
 GePol: Minimum weight of points                     =   0.73D-11
 GePol: Maximum weight of points                     =    0.21501
 GePol: Number of points with low weight             =     319
 GePol: Fraction of low-weight points (<1% of avg)   =       6.80%
 GePol: Cavity surface area                          =    595.624 Ang**2
 GePol: Cavity volume                                =    726.414 Ang**3
 ------------------------------------------------------------------------------
 Atomic radii for non-electrostatic terms: SMD-CDS.
 ------------------------------------------------------------------------------
 PCM non-electrostatic energy =         0.0047070003 Hartrees.
 Nuclear repulsion after PCM non-electrostatic terms =    10130.0271975351 Hartrees.
 Leave Link  301 at Mon Mar  3 15:33:48 2025, MaxMem= 82678120448 cpu:               5.2 elap:               0.2
 (Enter /sysapps/ubuntu-applications/gaussian-new/avx/g16/l302.exe)
 NPDir=0 NMtPBC=     1 NCelOv=     1 NCel=       1 NClECP=     1 NCelD=      1
         NCelK=      1 NCelE2=     1 NClLst=     1 CellRange=     0.0.
 One-electron integrals computed using PRISM.
 One-electron integral symmetry used in STVInt
 NBasis=   847 RedAO= T EigKep=  1.93D-04  NBF=   847
 NBsUse=   847 1.00D-06 EigRej= -1.00D+00 NBFU=   847
 Precomputing XC quadrature grid using
 IXCGrd= 4 IRadAn=           5 IRanWt=          -1 IRanGd=           0 AccXCQ= 0.00D+00.
 Generated NRdTot=       0 NPtTot=           0 NUsed=           0 NTot=          32
 NSgBfM=   854   854   854   854   854 MxSgAt=    69 MxSgA2=    69.
 Leave Link  302 at Mon Mar  3 15:33:50 2025, MaxMem= 82678120448 cpu:              38.4 elap:               1.6
 (Enter /sysapps/ubuntu-applications/gaussian-new/avx/g16/l303.exe)
 DipDrv:  MaxL=1.
 Leave Link  303 at Mon Mar  3 15:33:50 2025, MaxMem= 82678120448 cpu:               4.3 elap:               0.2
 (Enter /sysapps/ubuntu-applications/gaussian-new/avx/g16/l401.exe)
 ExpMin= 3.01D-02 ExpMax= 1.92D+05 ExpMxC= 1.85D+03 IAcc=3 IRadAn=         5 AccDes= 0.00D+00
 Harris functional with IExCor= 1009 and IRadAn=       5 diagonalized for initial guess.
 HarFok:  IExCor= 1009 AccDes= 0.00D+00 IRadAn=         5 IDoV= 1 UseB2=F ITyADJ=14
 ICtDFT=  3500011 ScaDFX=  1.000000  1.000000  1.000000  1.000000
 FoFCou: FMM=F IPFlag=           0 FMFlag=      100000 FMFlg1=        2001
         NFxFlg=           0 DoJE=T BraDBF=F KetDBF=T FulRan=T
         wScrn=  0.000000 ICntrl=       500 IOpCl=  0 I1Cent=   200000004 NGrid=           0
         NMat0=    1 NMatS0=      1 NMatT0=    0 NMatD0=    1 NMtDS0=    0 NMtDT0=    0
 Petite list used in FoFCou.
 Harris En= -4781.83908784587    
 JPrj=0 DoOrth=F DoCkMO=F.
 Leave Link  401 at Mon Mar  3 15:33:55 2025, MaxMem= 82678120448 cpu:             123.1 elap:               5.2
 (Enter /sysapps/ubuntu-applications/gaussian-new/avx/g16/l502.exe)
 Integral symmetry usage will be decided dynamically.
 Closed shell SCF:
 Using DIIS extrapolation, IDIIS=  1040.
 NGot= 82678120448 LenX= 82676454535 LenY= 82675636415
 Requested convergence on RMS density matrix=1.00D-08 within 500 cycles.
 Requested convergence on MAX density matrix=1.00D-06.
 Requested convergence on             energy=1.00D-06.
 No special actions if energy rises.
 Fock matrices will be formed incrementally for  20 cycles.

 Cycle   1  Pass 1  IDiag  1:
 FoFJK:  IHMeth= 1 ICntrl=       0 DoSepK=F KAlg= 0 I1Cent=           0 FoldK=F
 IRaf= 870000000 NMat=       1 IRICut=       1 DoRegI=T DoRafI=F ISym2E= 0 IDoP0=0 IntGTp=1.
 FoFCou: FMM=T IPFlag=           0 FMFlag=      100000 FMFlg1=        2001
         NFxFlg=           0 DoJE=F BraDBF=F KetDBF=F FulRan=T
         wScrn=  0.000000 ICntrl=         0 IOpCl=  0 I1Cent=           0 NGrid=           0
         NMat0=    1 NMatS0=      1 NMatT0=    0 NMatD0=    1 NMtDS0=    0 NMtDT0=    0
 Symmetry not used in FoFCou.
 FMM levels:  10  Number of levels for PrismC:   9
 Inv3:  Mode=1 IEnd=    66072747.
 Iteration    1 A*A^-1 deviation from unit magnitude is 6.77D-15 for   4672.
 Iteration    1 A*A^-1 deviation from orthogonality  is 8.56D-15 for   4690   3932.
 Iteration    1 A^-1*A deviation from unit magnitude is 7.22D-15 for   4672.
 Iteration    1 A^-1*A deviation from orthogonality  is 1.25D-14 for   4040   3999.
 E= -4780.23992295509    
 DIIS: error= 2.81D-02 at cycle   1 NSaved=   1.
 NSaved= 1 IEnMin= 1 EnMin= -4780.23992295509     IErMin= 1 ErrMin= 2.81D-02
 ErrMax= 2.81D-02  0.00D+00 EMaxC= 1.00D-01 BMatC= 1.90D+00 BMatP= 1.90D+00
 IDIUse=3 WtCom= 7.19D-01 WtEn= 2.81D-01
 Coeff-Com:  0.100D+01
 Coeff-En:   0.100D+01
 Coeff:      0.100D+01
 Gap=     0.259 Goal=   None    Shift=    0.000
 GapD=    0.259 DampG=1.000 DampE=0.250 DampFc=0.2500 IDamp=-1.
 Damping current iteration by 2.50D-01
 RMSDP=3.76D-03 MaxDP=4.27D-01              OVMax= 2.14D-01

 Cycle   2  Pass 1  IDiag  1:
 RMSU=  9.40D-04    CP:  9.98D-01
 E= -4780.75145164711     Delta-E=       -0.511528692021 Rises=F Damp=T
 DIIS: error= 1.22D-02 at cycle   2 NSaved=   2.
 NSaved= 2 IEnMin= 2 EnMin= -4780.75145164711     IErMin= 2 ErrMin= 1.22D-02
 ErrMax= 1.22D-02  0.00D+00 EMaxC= 1.00D-01 BMatC= 3.48D-01 BMatP= 1.90D+00
 IDIUse=3 WtCom= 8.78D-01 WtEn= 1.22D-01
 Coeff-Com: -0.602D+00 0.160D+01
 Coeff-En:   0.000D+00 0.100D+01
 Coeff:     -0.528D+00 0.153D+01
 Gap=     0.278 Goal=   None    Shift=    0.000
 RMSDP=1.08D-03 MaxDP=1.14D-01 DE=-5.12D-01 OVMax= 1.74D-01

 Cycle   3  Pass 1  IDiag  1:
 RMSU=  8.41D-04    CP:  9.91D-01  1.71D+00
 E= -4781.63632809783     Delta-E=       -0.884876450717 Rises=F Damp=F
 DIIS: error= 7.01D-03 at cycle   3 NSaved=   3.
 NSaved= 3 IEnMin= 3 EnMin= -4781.63632809783     IErMin= 3 ErrMin= 7.01D-03
 ErrMax= 7.01D-03  0.00D+00 EMaxC= 1.00D-01 BMatC= 5.02D-02 BMatP= 3.48D-01
 IDIUse=3 WtCom= 9.30D-01 WtEn= 7.01D-02
 Coeff-Com: -0.291D+00 0.677D+00 0.613D+00
 Coeff-En:   0.000D+00 0.000D+00 0.100D+01
 Coeff:     -0.270D+00 0.630D+00 0.641D+00
 Gap=     0.206 Goal=   None    Shift=    0.000
 RMSDP=4.11D-04 MaxDP=3.81D-02 DE=-8.85D-01 OVMax= 4.30D-02

 Cycle   4  Pass 1  IDiag  1:
 RMSU=  3.41D-04    CP:  9.95D-01  1.77D+00  7.42D-01
 E= -4781.66858968806     Delta-E=       -0.032261590235 Rises=F Damp=F
 DIIS: error= 4.34D-03 at cycle   4 NSaved=   4.
 NSaved= 4 IEnMin= 4 EnMin= -4781.66858968806     IErMin= 4 ErrMin= 4.34D-03
 ErrMax= 4.34D-03  0.00D+00 EMaxC= 1.00D-01 BMatC= 1.78D-02 BMatP= 5.02D-02
 IDIUse=3 WtCom= 9.57D-01 WtEn= 4.34D-02
 Coeff-Com: -0.111D+00 0.219D+00 0.387D+00 0.505D+00
 Coeff-En:   0.000D+00 0.000D+00 0.230D+00 0.770D+00
 Coeff:     -0.106D+00 0.210D+00 0.381D+00 0.516D+00
 Gap=     0.203 Goal=   None    Shift=    0.000
 RMSDP=2.01D-04 MaxDP=1.90D-02 DE=-3.23D-02 OVMax= 2.71D-02

 Cycle   5  Pass 1  IDiag  1:
 RMSU=  1.32D-04    CP:  9.94D-01  1.73D+00  8.03D-01  5.98D-01
 E= -4781.68158872870     Delta-E=       -0.012999040631 Rises=F Damp=F
 DIIS: error= 1.57D-03 at cycle   5 NSaved=   5.
 NSaved= 5 IEnMin= 5 EnMin= -4781.68158872870     IErMin= 5 ErrMin= 1.57D-03
[...]
 Alpha  occ. eigenvalues --   -0.65336  -0.64296  -0.63598  -0.63091  -0.62790
 Alpha  occ. eigenvalues --   -0.62329  -0.62053  -0.61176  -0.60241  -0.58482
 Alpha  occ. eigenvalues --   -0.58126  -0.57848  -0.57465  -0.57378  -0.56467
 Alpha  occ. eigenvalues --   -0.56333  -0.56235  -0.55511  -0.55449  -0.55263
 Alpha  occ. eigenvalues --   -0.55236  -0.55003  -0.54703  -0.54502  -0.54500
 Alpha  occ. eigenvalues --   -0.54191  -0.54119  -0.53704  -0.53432  -0.52908
 Alpha  occ. eigenvalues --   -0.52656  -0.52385  -0.52256  -0.52153  -0.52099
 Alpha  occ. eigenvalues --   -0.51868  -0.51601  -0.51459  -0.51324  -0.50638
 Alpha  occ. eigenvalues --   -0.50468  -0.49629  -0.49467  -0.48958  -0.48396
 Alpha  occ. eigenvalues --   -0.48139  -0.47958  -0.47729  -0.47222  -0.46468
 Alpha  occ. eigenvalues --   -0.46294  -0.46061  -0.45879  -0.45723  -0.44890
 Alpha  occ. eigenvalues --   -0.44653  -0.44553  -0.43877  -0.43814  -0.43571
 Alpha  occ. eigenvalues --   -0.43304  -0.43120  -0.42733  -0.42531  -0.42158
 Alpha  occ. eigenvalues --   -0.41868  -0.41559  -0.41383  -0.41010  -0.40644
 Alpha  occ. eigenvalues --   -0.40598  -0.40128  -0.39955  -0.39903  -0.39379
 Alpha  occ. eigenvalues --   -0.39262  -0.38721  -0.38418  -0.38204  -0.38047
 Alpha  occ. eigenvalues --   -0.37860  -0.37636  -0.37087  -0.37073  -0.36571
 Alpha  occ. eigenvalues --   -0.35899  -0.34570  -0.33549  -0.29603  -0.29361
 Alpha  occ. eigenvalues --   -0.27490
 Alpha virt. eigenvalues --   -0.07073  -0.06107  -0.04298  -0.02561  -0.00870
 Alpha virt. eigenvalues --   -0.00218   0.00338   0.00644   0.00977   0.01372
 Alpha virt. eigenvalues --    0.01851   0.03532   0.05655   0.06193   0.06825
 Alpha virt. eigenvalues --    0.07697   0.07918   0.08576   0.08718   0.08898
 Alpha virt. eigenvalues --    0.09008   0.09224   0.09726   0.09898   0.10492
 Alpha virt. eigenvalues --    0.10716   0.10778   0.10973   0.11626   0.12317
 Alpha virt. eigenvalues --    0.13040   0.13156   0.13444   0.14164   0.14470
 Alpha virt. eigenvalues --    0.14731   0.14807   0.15288   0.15788   0.16156
 Alpha virt. eigenvalues --    0.16487   0.16841   0.16922   0.17613   0.18093
 Alpha virt. eigenvalues --    0.18212   0.18801   0.18856   0.19321   0.19422
 Alpha virt. eigenvalues --    0.20343   0.20459   0.20888   0.21233   0.21826
 Alpha virt. eigenvalues --    0.22408   0.22568   0.23395   0.23471   0.23976
 Alpha virt. eigenvalues --    0.24036   0.24783   0.25172   0.25312   0.25603
 Alpha virt. eigenvalues --    0.25764   0.26545   0.26821   0.27036   0.27110
 Alpha virt. eigenvalues --    0.27775   0.27939   0.28428   0.28769   0.28907
 Alpha virt. eigenvalues --    0.29218   0.29535   0.30331   0.31446   0.31818
 Alpha virt. eigenvalues --    0.32254   0.32746   0.33147   0.34424   0.35450
 Alpha virt. eigenvalues --    0.35925   0.37412   0.37671   0.38523   0.39058
 Alpha virt. eigenvalues --    0.39947   0.40721   0.40967   0.41199   0.41688
 Alpha virt. eigenvalues --    0.42217   0.43216   0.43671   0.44297   0.44688
 Alpha virt. eigenvalues --    0.44943   0.45512   0.45733   0.46443   0.46600
 Alpha virt. eigenvalues --    0.47114   0.47272   0.47576   0.48237   0.48369
 Alpha virt. eigenvalues --    0.48629   0.49205   0.49813   0.49888   0.50084
 Alpha virt. eigenvalues --    0.50376   0.50659   0.51158   0.51731   0.52029
 Alpha virt. eigenvalues --    0.52449   0.52980   0.53719   0.53931   0.54679
 Alpha virt. eigenvalues --    0.54983   0.55423   0.55626   0.56058   0.56809
 Alpha virt. eigenvalues --    0.57008   0.57602   0.57929   0.58337   0.59464
 Alpha virt. eigenvalues --    0.59684   0.60269   0.60625   0.60874   0.61286
 Alpha virt. eigenvalues --    0.61715   0.62659   0.62818   0.63193   0.63438
 Alpha virt. eigenvalues --    0.63799   0.64401   0.64539   0.65225   0.65483
 Alpha virt. eigenvalues --    0.65640   0.66259   0.66323   0.67066   0.67281
 Alpha virt. eigenvalues --    0.67675   0.67862   0.68075   0.68334   0.68757
 Alpha virt. eigenvalues --    0.68955   0.69142   0.69427   0.69661   0.69860
 Alpha virt. eigenvalues --    0.70361   0.70627   0.70873   0.71175   0.71354
 Alpha virt. eigenvalues --    0.71444   0.71732   0.72347   0.72892   0.73241
 Alpha virt. eigenvalues --    0.73542   0.73583   0.74334   0.74615   0.74999
 Alpha virt. eigenvalues --    0.75618   0.75823   0.76362   0.76712   0.77152
 Alpha virt. eigenvalues --    0.77377   0.77918   0.78104   0.78353   0.78743
 Alpha virt. eigenvalues --    0.79055   0.79604   0.80480   0.81588   0.81844
 Alpha virt. eigenvalues --    0.82298   0.82876   0.84240   0.84407   0.84893
 Alpha virt. eigenvalues --    0.85798   0.86306   0.86504   0.87138   0.87742
 Alpha virt. eigenvalues --    0.88458   0.88584   0.89342   0.89765   0.90574
 Alpha virt. eigenvalues --    0.90921   0.91482   0.91807   0.93226   0.93596
 Alpha virt. eigenvalues --    0.93832   0.94751   0.95062   0.96059   0.96436
 Alpha virt. eigenvalues --    0.97658   0.97816   0.97868   0.98105   0.98596
 Alpha virt. eigenvalues --    0.99091   0.99450   1.00738   1.01041   1.01450
 Alpha virt. eigenvalues --    1.02144   1.02770   1.03303   1.03744   1.04514
 Alpha virt. eigenvalues --    1.04643   1.05332   1.05974   1.06115   1.07018
 Alpha virt. eigenvalues --    1.07556   1.07654   1.08373   1.08997   1.09186
 Alpha virt. eigenvalues --    1.09542   1.10124   1.10349   1.10600   1.11384
 Alpha virt. eigenvalues --    1.12235   1.12367   1.12760   1.13237   1.13698
 Alpha virt. eigenvalues --    1.13944   1.14604   1.15515   1.15746   1.16539
 Alpha virt. eigenvalues --    1.16807   1.17053   1.17303   1.17943   1.18162
 Alpha virt. eigenvalues --    1.18937   1.19162   1.19509   1.19850   1.20880
 Alpha virt. eigenvalues --    1.21339   1.21681   1.22082   1.22379   1.22715
 Alpha virt. eigenvalues --    1.22959   1.23651   1.24062   1.24421   1.25242
 Alpha virt. eigenvalues --    1.25297   1.25822   1.26141   1.26302   1.26642
 Alpha virt. eigenvalues --    1.26996   1.27443   1.28218   1.28522   1.29043
 Alpha virt. eigenvalues --    1.30002   1.30106   1.31181   1.31453   1.31567
 Alpha virt. eigenvalues --    1.32336   1.32435   1.33275   1.33610   1.33691
 Alpha virt. eigenvalues --    1.34382   1.34901   1.35738   1.36040   1.37089
 Alpha virt. eigenvalues --    1.37284   1.37997   1.38654   1.38777   1.39409
 Alpha virt. eigenvalues --    1.40261   1.41060   1.41481   1.41832   1.42748
 Alpha virt. eigenvalues --    1.42828   1.43504   1.43733   1.44247   1.44656
 Alpha virt. eigenvalues --    1.44973   1.46199   1.46570   1.46948   1.47585
 Alpha virt. eigenvalues --    1.48278   1.48914   1.49777   1.50426   1.51589
 Alpha virt. eigenvalues --    1.52121   1.52734   1.52884   1.53540   1.53831
 Alpha virt. eigenvalues --    1.54059   1.55068   1.55616   1.55729   1.56506
 Alpha virt. eigenvalues --    1.56906   1.57095   1.58050   1.58369   1.58811
 Alpha virt. eigenvalues --    1.59412   1.59685   1.60505   1.60842   1.61262
 Alpha virt. eigenvalues --    1.62433   1.62716   1.63624   1.64391   1.64916
 Alpha virt. eigenvalues --    1.65490   1.66125   1.66759   1.67401   1.68382
 Alpha virt. eigenvalues --    1.68962   1.69447   1.69875   1.70839   1.71579
 Alpha virt. eigenvalues --    1.71901   1.72131   1.72402   1.73017   1.73853
 Alpha virt. eigenvalues --    1.74177   1.74615   1.74919   1.75315   1.75824
 Alpha virt. eigenvalues --    1.75932   1.76676   1.76937   1.77563   1.77735
 Alpha virt. eigenvalues --    1.78200   1.79088   1.79171   1.79613   1.80110
 Alpha virt. eigenvalues --    1.80698   1.81908   1.82192   1.82514   1.82824
 Alpha virt. eigenvalues --    1.83902   1.84767   1.84869   1.85408   1.85636
 Alpha virt. eigenvalues --    1.86374   1.86690   1.86977   1.87426   1.87811
 Alpha virt. eigenvalues --    1.88520   1.89241   1.89744   1.89928   1.90435
 Alpha virt. eigenvalues --    1.90765   1.91008   1.91188   1.91601   1.92272
 Alpha virt. eigenvalues --    1.92516   1.92989   1.93251   1.93369   1.94188
 Alpha virt. eigenvalues --    1.94954   1.96336   1.96553   1.96835   1.97833
 Alpha virt. eigenvalues --    1.97875   1.98450   1.99022   1.99279   1.99857
 Alpha virt. eigenvalues --    2.00411   2.00788   2.01341   2.01910   2.02335
 Alpha virt. eigenvalues --    2.02746   2.03067   2.03588   2.03848   2.04586
 Alpha virt. eigenvalues --    2.04960   2.05428   2.05986   2.06711   2.07582
 Alpha virt. eigenvalues --    2.09073   2.09825   2.10242   2.10487   2.11422
 Alpha virt. eigenvalues --    2.12427   2.12686   2.13150   2.14353   2.14724
 Alpha virt. eigenvalues --    2.15107   2.15797   2.16609   2.17974   2.20082
 Alpha virt. eigenvalues --    2.20579   2.21125   2.22634   2.23836   2.24214
 Alpha virt. eigenvalues --    2.24566   2.25053   2.25092   2.25950   2.26471
 Alpha virt. eigenvalues --    2.27189   2.29883   2.30414   2.30685   2.32046
 Alpha virt. eigenvalues --    2.32415   2.33424   2.34439   2.36674   2.38219
 Alpha virt. eigenvalues --    2.39256   2.39652   2.40271   2.41093   2.41332
 Alpha virt. eigenvalues --    2.43446   2.43948   2.44745   2.45411   2.46977
 Alpha virt. eigenvalues --    2.48361   2.50163   2.51150   2.53226   2.54807
 Alpha virt. eigenvalues --    2.55926   2.56351   2.57068   2.57424   2.57706
 Alpha virt. eigenvalues --    2.58318   2.59189   2.59821   2.60076   2.60315
 Alpha virt. eigenvalues --    2.60943   2.61143   2.61715   2.62102   2.62400
 Alpha virt. eigenvalues --    2.62720   2.64039   2.64672   2.65653   2.66152
 Alpha virt. eigenvalues --    2.67031   2.67569   2.67927   2.68555   2.68732
 Alpha virt. eigenvalues --    2.69331   2.70296   2.71131   2.71505   2.71945
 Alpha virt. eigenvalues --    2.72355   2.72617   2.73021   2.73806   2.74725
 Alpha virt. eigenvalues --    2.75325   2.76585   2.76962   2.77582   2.78412
 Alpha virt. eigenvalues --    2.78747   2.79214   2.79918   2.80366   2.80761
 Alpha virt. eigenvalues --    2.81550   2.82965   2.83488   2.83840   2.84329
 Alpha virt. eigenvalues --    2.85477   2.85948   2.86636   2.87245   2.87973
 Alpha virt. eigenvalues --    2.89989   2.90882   2.91171   2.91303   2.92098
 Alpha virt. eigenvalues --    2.92628   2.93276   2.93672   2.93844   2.94846
 Alpha virt. eigenvalues --    2.94893   2.95575   2.96393   2.96642   2.97808
 Alpha virt. eigenvalues --    2.97867   2.98317   2.98360   2.98676   2.99830
 Alpha virt. eigenvalues --    3.00540   3.01431   3.02233   3.02252   3.02328
 Alpha virt. eigenvalues --    3.02505   3.02560   3.02675   3.02698   3.02750
 Alpha virt. eigenvalues --    3.02868   3.02884   3.03045   3.03259   3.03388
 Alpha virt. eigenvalues --    3.03571   3.04137   3.04235   3.04706   3.05456
 Alpha virt. eigenvalues --    3.05989   3.06237   3.06966   3.07577   3.08897
 Alpha virt. eigenvalues --    3.10125   3.11692   3.13999   3.15161   3.15536
 Alpha virt. eigenvalues --    3.15584   3.15811   3.16001   3.16178   3.16754
 Alpha virt. eigenvalues --    3.20147   3.21532   3.22810   3.26890   3.30423
 Alpha virt. eigenvalues --    3.33563   3.33942   3.34344   3.36296   3.36517
 Alpha virt. eigenvalues --    3.36977   3.37298   3.37960   3.38040   3.39098
 Alpha virt. eigenvalues --    3.39481   3.43106   3.44902   3.51063   3.51878
 Alpha virt. eigenvalues --    3.52160   3.52604   3.52744   3.53140   3.54656
 Alpha virt. eigenvalues --    3.58749   3.61558   3.67498   3.67905   3.68422
 Alpha virt. eigenvalues --    3.81029   3.81947   3.82406   3.82977   3.83199
 Alpha virt. eigenvalues --    3.83992
          Condensed to atoms (all electrons):
 Mulliken charges:
               1
     1  C   -0.311884
     2  C    0.045313
     3  C    0.106343
     4  O   -0.195753
     5  O   -0.216412
     6  O   -0.440240
     7  O   -0.442450
     8  O   -0.430490
     9  S    0.893730
    10  S    0.867945
    11  S    0.859399
    12  O   -0.443639
    13  O   -0.382710
    14  O   -0.427076
    15  O   -0.384848
    16  O   -0.435703
    17  O   -0.399511
    18  C    0.445885
    19  C    0.448804
    20  C    0.433692
    21  F   -0.115974
    22  F   -0.111170
    23  F   -0.122663
    24  F   -0.102302
    25  F   -0.119701
    26  F   -0.118519
    27  F   -0.104234
    28  F   -0.117679
    29  F   -0.121115
    30  C    0.134261
    31  C   -0.230478
    32  C   -0.165594
    33  C   -0.150818
    34  C    0.020384
    35  C   -0.002460
    36  C    0.014597
    37  H    0.041617
    38  H    0.054679
    39  H    0.039935
    40  N    0.144129
    41  N    0.110909
    42  N   -0.218868
    43  N   -0.019675
    44  C    0.141952
    45  H    0.046391
    46  C    0.176416
    47  H    0.064122
    48  H    0.055154
    49  Sc   0.316920
    50  H    0.079762
    51  C   -0.030667
    52  C   -0.024708
    53  C    0.022296
    54  C    0.012133
    55  H   -0.000109
    56  C   -0.000322
    57  H    0.003794
    58  C    0.014245
    59  H    0.003230
    60  H    0.009610
    61  H    0.013718
    62  C    0.123197
    63  H    0.076125
    64  H    0.082561
    65  H    0.089985
    66  C    0.215829
    67  H    0.040557
    68  H    0.072528
    69  H    0.065623
 Sum of Mulliken charges =  -0.00000
 Mulliken charges with hydrogens summed into heavy atoms:
               1
     1  C   -0.311884
     2  C    0.045313
     3  C    0.106343
     4  O   -0.195753
     5  O   -0.216412
     6  O   -0.440240
     7  O   -0.442450
     8  O   -0.430490
     9  S    0.893730
    10  S    0.867945
    11  S    0.859399
    12  O   -0.443639
    13  O   -0.382710
    14  O   -0.427076
    15  O   -0.384848
    16  O   -0.435703
    17  O   -0.399511
    18  C    0.445885
    19  C    0.448804
    20  C    0.433692
    21  F   -0.115974
    22  F   -0.111170
    23  F   -0.122663
    24  F   -0.102302
    25  F   -0.119701
    26  F   -0.118519
    27  F   -0.104234
    28  F   -0.117679
    29  F   -0.121115
    30  C    0.214023
    31  C   -0.230478
    32  C   -0.165594
    33  C   -0.150818
    34  C    0.062001
    35  C    0.052220
    36  C    0.054532
    40  N    0.144129
    41  N    0.110909
    42  N   -0.218868
    43  N   -0.019675
    44  C    0.188343
    46  C    0.295691
    49  Sc   0.316920
    51  C   -0.030667
    52  C   -0.024816
    53  C    0.026090
    54  C    0.015363
    56  C    0.009288
    58  C    0.027963
    62  C    0.371868
    66  C    0.394537
 Electronic spatial extent (au):  <R**2>=          29567.4428
 Charge=             -0.0000 electrons
 Dipole moment (field-independent basis, Debye):
    X=             -8.3299    Y=             -6.4103    Z=             -1.5043  Tot=             10.6180
 Quadrupole moment (field-independent basis, Debye-Ang):
   XX=           -374.1430   YY=           -298.8223   ZZ=           -329.9744
   XY=              9.6202   XZ=              5.4730   YZ=             -7.3421
 Traceless Quadrupole moment (field-independent basis, Debye-Ang):
   XX=            -39.8298   YY=             35.4910   ZZ=              4.3388
   XY=              9.6202   XZ=              5.4730   YZ=             -7.3421
 Octapole moment (field-independent basis, Debye-Ang**2):
  XXX=            702.9238  YYY=            -88.1475  ZZZ=            -84.9293  XYY=            -43.9457
  XXY=            -64.2775  XXZ=           -159.7598  XZZ=             47.8784  YZZ=             37.8704
  YYZ=            -56.4260  XYZ=            -25.9820
 Hexadecapole moment (field-independent basis, Debye-Ang**3):
 XXXX=         -26144.3680 YYYY=          -8669.3103 ZZZZ=          -5498.1010 XXXY=            285.9008
 XXXZ=            469.6789 YYYX=            120.6368 YYYZ=             -4.6064 ZZZX=            296.4085
 ZZZY=             -3.6773 XXYY=          -5077.1877 XXZZ=          -4883.5816 YYZZ=          -2361.9618
 XXYZ=            273.6423 YYXZ=             50.4787 ZZXY=           -164.4816
 N-N= 1.007656269477D+04 E-N=-3.142289881748D+04  KE= 4.751169464294D+03
 No NMR shielding tensors so no spin-rotation constants.
 Leave Link  601 at Mon Mar  3 21:38:23 2025, MaxMem= 82678120448 cpu:              14.8 elap:               0.7
 (Enter /sysapps/ubuntu-applications/gaussian-new/avx/g16/l9999.exe)
 1\1\GINC-ACIDSMN002\FOpt\RMN15\Gen\C23H18F9N4O11S3Sc1\SELHAJJ1\03-Mar-
 2025\0\\#P MN15/gen scf=(maxcyc=500) opt scrf=(smd,solvent=DiChloroEth
 ane)\\Opt\\0,1\C,1.8863579949,-0.9967462111,-0.7472882409\C,1.46421475
 34,-0.3746023043,0.5959580912\C,0.6740897055,-1.5197343147,-1.55006788
 82\O,-0.4273694308,-0.9866025364,-1.4469125162\O,0.4972209254,0.393550
 2792,0.601864048\O,-3.1617757143,-1.2667838229,-0.3254478316\O,-2.1030
 084228,0.0900120963,1.9952178375\O,-0.6594584073,1.9170086917,-1.35613
 10594\S,-1.5623886699,2.9424123491,-0.7541497101\S,-3.8487320983,-0.63
 19237466,-1.4985587812\S,-1.6275959023,-1.2950777824,2.342758887\O,-2.
 307702643,2.1953230154,0.3177096999\O,-2.3116771758,3.8055987749,-1.62
 62660946\O,-2.9526062045,0.5127647138,-1.8426442529\O,-4.316183538,-1.
 486027035,-2.5550667877\O,-0.9688159679,-1.7952810894,1.1051626011\O,-
 0.9142481113,-1.4443278114,3.5870074316\C,-3.2030881375,-2.2900573886,
 2.5277160782\C,-5.3301125289,0.1461070665,-0.7291255958\C,-0.453463068
 5,4.0267819001,0.2340390123\F,-3.1642430964,-3.3245314871,1.7148512843
 \F,-4.250756773,-1.5396189599,2.2566030271\F,-3.2778135007,-2.71237139
 96,3.7751959387\F,-4.9386488485,0.8797601452,0.2961341564\F,-6.1430479
 069,-0.8045412269,-0.3123606269\F,-5.9408166929,0.9049745514,-1.616142
 1576\F,0.1315783361,3.3034277262,1.1689965493\F,-1.1699771986,4.981844
 1236,0.7921849008\F,0.4585367886,4.5614416133,-0.5593959746\C,3.794598
 0769,0.6586791607,-1.3038943087\C,4.7479800916,-0.5626764688,-1.296088
 7105\C,6.1423065646,-0.1562149298,-1.0096868967\C,4.7669818386,-1.1713
 076644,-2.6611924883\C,2.6156691321,-3.1834240187,0.3468993344\C,4.980
 4058454,-3.5368059004,0.5667906585\C,3.6033361303,-3.8951923208,0.9031
 600194\H,1.5574073155,-3.3802083631,0.5510246258\H,5.8120804356,-4.191
 3279363,0.8415516355\H,3.4130032341,-4.7187738773,1.5927834142\N,7.228
 5208924,0.2134887976,-0.8621946927\N,4.6996278766,-1.6924407372,-3.693
 2790588\N,4.2825164095,-1.5515806201,-0.3305020534\N,5.2894536529,-2.4
 365208165,-0.0186314596\C,2.9607971924,-2.1014994182,-0.6476601752\H,3
 .0215311148,-2.5688465925,-1.6525143654\C,2.3907969723,0.1616708602,-1
 .6674011016\H,1.66167334,0.9844335216,-1.6257863702\H,2.4040562057,-0.
 2059585889,-2.7061718883\Sc,-1.5341548258,0.2109149739,-0.0883751691\H
 ,4.1179176046,1.2979593629,-2.1409035115\C,3.8493838445,1.5067936727,-
 0.0394071159\C,3.1387468517,2.7182667719,-0.061972012\C,4.5862672335,1
 .1875501553,1.1101212638\C,3.1724300578,3.5903976668,1.0246846229\H,2.
 5600772119,2.9852026148,-0.9514454061\C,4.6186558937,2.0612775501,2.20
 04098045\H,5.1327113853,0.2463249942,1.1870308016\C,3.9147193291,3.264
 2456823,2.1628969597\H,2.619127739,4.5304039765,0.9809761695\H,5.20020
 91578,1.7916092614,3.0846106843\H,3.9443088709,3.9471781829,3.01465038
 57\C,0.8443340002,-2.6119346708,-2.5496219838\H,-0.0862805679,-2.71280
 29105,-3.118624985\H,1.6888546792,-2.406582272,-3.2262484194\H,1.06236
 91518,-3.5594555011,-2.0296545615\C,2.1122398554,-0.6806109402,1.89743
 38423\H,3.1363766783,-1.0533520869,1.8280157914\H,2.0431315641,0.21213
 43869,2.5343263499\H,1.4757255979,-1.4606276291,2.3567514848\\Version=
 ES64L-G16RevA.03\State=1-A\HF=-4781.7178339\RMSD=4.583e-09\RMSF=6.507e
 -06\Dipole=3.2583012,-2.5097042,0.732018\Quadrupole=-29.3341562,27.634
 5495,1.6996067,-5.1325739,6.4990514,2.6803942\PG=C01 [X(C23H18F9N4O11S
 3Sc1)]\\@


 YOU CANNOT THROW TO THE GROUND THE LETTERS OF
 THE GREEK ALPHABET AND PICK UP THE ILIAD.
        - RUFUS CHOATE, 1799-1859
 Job cpu time:       5 days 22 hours 33 minutes 49.0 seconds.
 Elapsed time:       0 days  6 hours  4 minutes  7.0 seconds.
 File lengths (MBytes):  RWF=   1220 Int=      0 D2E=      0 Chk=     64 Scr=      8
 Normal termination of Gaussian 16 at Mon Mar  3 21:38:23 2025.
