 Entering Gaussian System, Link 0=/sysapps/ubuntu-applications/gaussian-new/avx/g16//g16
 Input=i3-maj.in
 Output=i3-maj.log
 Initial command:
 /sysapps/ubuntu-applications/gaussian-new/avx/g16/l1.exe "/data/temp-scratch/selhajj1/7545715/Gau-1150931.inp" -scrdir="/data/temp-scratch/selhajj1/7545715/"
 Entering Link 1 = /sysapps/ubuntu-applications/gaussian-new/avx/g16/l1.exe PID=   1150933.
  
 Copyright (c) 1988,1990,1992,1993,1995,1998,2003,2009,2016,
            Gaussian, Inc.  All Rights Reserved.
  
 This is part of the Gaussian(R) 16 program.  It is based on
 the Gaussian(R) 09 system (copyright 2009, Gaussian, Inc.),
 the Gaussian(R) 03 system (copyright 2003, Gaussian, Inc.),
 the Gaussian(R) 98 system (copyright 1998, Gaussian, Inc.),
 the Gaussian(R) 94 system (copyright 1995, Gaussian, Inc.),
 the Gaussian 92(TM) system (copyright 1992, Gaussian, Inc.),
 the Gaussian 90(TM) system (copyright 1990, Gaussian, Inc.),
 the Gaussian 88(TM) system (copyright 1988, Gaussian, Inc.),
 the Gaussian 86(TM) system (copyright 1986, Carnegie Mellon
 University), and the Gaussian 82(TM) system (copyright 1983,
 Carnegie Mellon University). Gaussian is a federally registered
 trademark of Gaussian, Inc.
  
 This software contains proprietary and confidential information,
 including trade secrets, belonging to Gaussian, Inc.
  
 This software is provided under written license and may be
 used, copied, transmitted, or stored only in accord with that
 written license.
  
 The following legend is applicable only to US Government
 contracts under FAR:
  
                    RESTRICTED RIGHTS LEGEND
  
 Use, reproduction and disclosure by the US Government is
 subject to restrictions as set forth in subparagraphs (a)
 and (c) of the Commercial Computer Software - Restricted
 Rights clause in FAR 52.227-19.
  
 Gaussian, Inc.
 340 Quinnipiac St., Bldg. 40, Wallingford CT 06492
  
  
 ---------------------------------------------------------------
 Warning -- This program may not be used in any manner that
 competes with the business of Gaussian, Inc. or will provide
 assistance to any competitor of Gaussian, Inc.  The licensee
 of this program is prohibited from giving any competitor of
 Gaussian, Inc. access to this program.  By using this program,
 the user acknowledges that Gaussian, Inc. is engaged in the
 business of creating and licensing software in the field of
 computational chemistry and represents and warrants to the
 licensee that it is not a competitor of Gaussian, Inc. and that
 it will not use this program in any manner prohibited above.
 ---------------------------------------------------------------
  

 Cite this work as:
 Gaussian 16, Revision A.03,
 M. J. Frisch, G. W. Trucks, H. B. Schlegel, G. E. Scuseria, 
 M. A. Robb, J. R. Cheeseman, G. Scalmani, V. Barone, 
 G. A. Petersson, H. Nakatsuji, X. Li, M. Caricato, A. V. Marenich, 
 J. Bloino, B. G. Janesko, R. Gomperts, B. Mennucci, H. P. Hratchian, 
 J. V. Ortiz, A. F. Izmaylov, J. L. Sonnenberg, D. Williams-Young, 
 F. Ding, F. Lipparini, F. Egidi, J. Goings, B. Peng, A. Petrone, 
 T. Henderson, D. Ranasinghe, V. G. Zakrzewski, J. Gao, N. Rega, 
 G. Zheng, W. Liang, M. Hada, M. Ehara, K. Toyota, R. Fukuda, 
 J. Hasegawa, M. Ishida, T. Nakajima, Y. Honda, O. Kitao, H. Nakai, 
 T. Vreven, K. Throssell, J. A. Montgomery, Jr., J. E. Peralta, 
 F. Ogliaro, M. J. Bearpark, J. J. Heyd, E. N. Brothers, K. N. Kudin, 
 V. N. Staroverov, T. A. Keith, R. Kobayashi, J. Normand, 
 K. Raghavachari, A. P. Rendell, J. C. Burant, S. S. Iyengar, 
 J. Tomasi, M. Cossi, J. M. Millam, M. Klene, C. Adamo, R. Cammi, 
 J. W. Ochterski, R. L. Martin, K. Morokuma, O. Farkas, 
 J. B. Foresman, and D. J. Fox, Gaussian, Inc., Wallingford CT, 2016.
 
 ******************************************
 Gaussian 16:  ES64L-G16RevA.03 25-Dec-2016
                 6-Feb-2025 
 ******************************************
 %chk=i3-maj.chk
 %mem=616Gb
 %nprocshared=24
 Will use up to   24 processors via shared memory.
 ------------------------------------------------------------------
 #P MN15/gen scf=(maxcyc=500) opt scrf=(smd,solvent=DiChloroEthane)
 ------------------------------------------------------------------
 1/18=20,19=15,26=3,38=1/1,3;
 2/9=110,12=2,17=6,18=5,40=1/2;
 3/5=7,11=2,25=1,30=1,70=32201,71=1,72=10,74=-73/1,2,3;
 4//1;
 5/5=2,7=500,38=5,53=10/2;
 6/7=2,8=2,9=2,10=2,28=1/1;
 7//1,2,3,16;
 1/18=20,19=15,26=3/3(2);
 2/9=110/2;
 99//99;
 2/9=110/2;
 3/5=7,6=1,11=2,25=1,30=1,70=32205,71=1,72=10,74=-73,82=7/1,2,3;
 4/5=5,16=3,69=1/1;
 5/5=2,7=500,38=5,53=10/2;
 7//1,2,3,16;
 1/18=20,19=15,26=3/3(-5);
 2/9=110/2;
 6/7=2,8=2,9=2,10=2,19=2,28=1/1;
 99/9=1/99;
 Leave Link    1 at Thu Feb  6 20:56:33 2025, MaxMem= 82678120448 cpu:               2.9 elap:               0.2
 (Enter /sysapps/ubuntu-applications/gaussian-new/avx/g16/l101.exe)
 ---
 Opt
 ---
 Symbolic Z-matrix:
 Charge =  0 Multiplicity = 1
 C                    -5.68807   0.69869   0.1761 
 C                    -5.43724   2.04853   0.47071 
 C                    -6.48231   2.96338   0.58272 
 C                    -7.80272   2.54257   0.39641 
 C                    -8.06291   1.20548   0.09896 
 C                    -7.01371   0.28695  -0.00914 
 C                    -2.09855  -0.45135  -0.99067 
 C                    -2.31241  -1.51067  -2.06151 
 C                    -0.86252   0.38611  -1.28153 
 H                    -4.40268   2.38042   0.6049 
 H                    -6.26582   4.01036   0.80649 
 H                    -8.62447   3.25757   0.47723 
 H                    -9.08955   0.86581  -0.05419 
 H                    -7.26175  -0.74895  -0.24917 
 O                     0.14486  -0.06044  -1.84283 
 O                    -1.52202  -1.82925  -2.95007 
 O                    -3.43504  -2.13968  -1.91165 
 O                    -0.86966   1.56679  -0.75876 
 C                    -3.66967  -3.30814  -2.71735 
 C                     0.33746   2.35072  -0.85747 
 H                    -4.62851  -3.71849  -2.3831 
 H                    -2.85258  -4.02774  -2.55548 
 H                    -3.71229  -3.02693  -3.77781 
 H                     0.11581   3.30749  -0.37662 
 H                     0.6036    2.48801  -1.91369 
 H                     1.14853   1.8298   -0.33044 
 O                     2.58057  -1.04379  -3.4901 
 O                     0.6684   -3.08057  -4.50905 
 O                    -1.26214   0.64936  -4.04655 
 S                    -1.4581    0.22139  -5.45862 
 S                     2.80871   0.19988  -4.29652 
 S                     1.08971  -3.78545  -3.24932 
 O                    -0.58793  -0.9931   -5.6208 
 O                    -1.4062    1.21288  -6.49994 
 O                     1.42169   0.70035  -4.55021 
 O                     3.80817   1.12986  -3.85126 
 O                     1.00919  -2.73034  -2.20235 
 O                     0.48287  -5.06217  -2.97011 
 C                     2.91512  -4.11541  -3.49181 
 C                     3.33756  -0.46696  -5.9291 
 C                    -3.19232  -0.47823  -5.51034 
 F                     3.58747  -3.61994  -2.4742 
 F                     3.32723  -3.56304  -4.61519 
 F                     3.09857  -5.41989  -3.5506 
 F                     2.41564  -1.32116  -6.33934 
 F                     4.49261  -1.08567  -5.79353 
 F                     3.45168   0.51904  -6.79435 
 F                    -3.74592  -0.37982  -4.3084 
 F                    -3.15451  -1.74864  -5.8621 
 F                    -3.90876   0.20377  -6.37622 
 C                    -4.48277  -0.21531   0.07586 
 H                    -4.82121  -1.14652  -0.40243 
 C                    -3.873    -0.72374   1.40804 
 C                    -4.90788  -1.33459   2.2704 
 C                    -3.20749   0.35894   2.17701 
 C                    -0.74136  -2.33966   0.14537 
 C                    -2.57381  -3.88544   0.46947 
 C                    -1.18263  -3.60775   0.13477 
 H                     0.29706  -2.08987  -0.07273 
 H                    -2.98725  -4.89363   0.38798 
 H                    -0.5137   -4.43445  -0.10418 
 N                    -5.73949  -1.75923   2.95298 
 N                    -2.65788   1.2105    2.73567 
 N                    -2.85571  -1.71966   1.08024 
 N                    -3.36093  -2.96812   0.91144 
 C                    -1.70761  -1.20602   0.35772 
 H                    -1.23203  -0.43725   1.01875 
 Sc                    0.36424  -1.08801  -3.6762 
 C                    -3.36687   0.42086  -0.77381 
 H                    -3.7886    0.70791  -1.74733 
 H                    -3.05581   1.35378  -0.28134 
 
 ITRead=  0  0  0  0  0  0  0  0  0  0  0  0  0  0  0  0  0  0  0  0
 ITRead=  0  0  0  0  0  0  0  0  0  0  0  0  0  0  0  0  0  0  0  0
 ITRead=  0  0  0  0  0  0  0  0  0  0  0  0  0  0  0  0  0  0  0  0
 ITRead=  0  0  0  0  0  0  0  0  0  0  0
 MicOpt= -1 -1 -1 -1 -1 -1 -1 -1 -1 -1 -1 -1 -1 -1 -1 -1 -1 -1 -1 -1
 MicOpt= -1 -1 -1 -1 -1 -1 -1 -1 -1 -1 -1 -1 -1 -1 -1 -1 -1 -1 -1 -1
 MicOpt= -1 -1 -1 -1 -1 -1 -1 -1 -1 -1 -1 -1 -1 -1 -1 -1 -1 -1 -1 -1
 MicOpt= -1 -1 -1 -1 -1 -1 -1 -1 -1 -1 -1
 NAtoms=     71 NQM=       71 NQMF=       0 NMMI=      0 NMMIF=      0
                NMic=       0 NMicF=      0.
                    Isotopes and Nuclear Properties:
 (Nuclear quadrupole moments (NQMom) in fm**2, nuclear magnetic moments (NMagM)
  in nuclear magnetons)

  Atom         1           2           3           4           5           6           7           8           9          10
 IAtWgt=          12          12          12          12          12          12          12          12          12           1
 AtmWgt=  12.0000000  12.0000000  12.0000000  12.0000000  12.0000000  12.0000000  12.0000000  12.0000000  12.0000000   1.0078250
 NucSpn=           0           0           0           0           0           0           0           0           0           1
 AtZEff=  -0.0000000  -0.0000000  -0.0000000  -0.0000000  -0.0000000  -0.0000000  -0.0000000  -0.0000000  -0.0000000  -0.0000000
 NQMom=    0.0000000   0.0000000   0.0000000   0.0000000   0.0000000   0.0000000   0.0000000   0.0000000   0.0000000   0.0000000
 NMagM=    0.0000000   0.0000000   0.0000000   0.0000000   0.0000000   0.0000000   0.0000000   0.0000000   0.0000000   2.7928460
 AtZNuc=   6.0000000   6.0000000   6.0000000   6.0000000   6.0000000   6.0000000   6.0000000   6.0000000   6.0000000   1.0000000

  Atom        11          12          13          14          15          16          17          18          19          20
 IAtWgt=           1           1           1           1          16          16          16          16          12          12
 AtmWgt=   1.0078250   1.0078250   1.0078250   1.0078250  15.9949146  15.9949146  15.9949146  15.9949146  12.0000000  12.0000000
 NucSpn=           1           1           1           1           0           0           0           0           0           0
 AtZEff=  -0.0000000  -0.0000000  -0.0000000  -0.0000000  -0.0000000  -0.0000000  -0.0000000  -0.0000000  -0.0000000  -0.0000000
 NQMom=    0.0000000   0.0000000   0.0000000   0.0000000   0.0000000   0.0000000   0.0000000   0.0000000   0.0000000   0.0000000
 NMagM=    2.7928460   2.7928460   2.7928460   2.7928460   0.0000000   0.0000000   0.0000000   0.0000000   0.0000000   0.0000000
 AtZNuc=   1.0000000   1.0000000   1.0000000   1.0000000   8.0000000   8.0000000   8.0000000   8.0000000   6.0000000   6.0000000

  Atom        21          22          23          24          25          26          27          28          29          30
 IAtWgt=           1           1           1           1           1           1          16          16          16          32
 AtmWgt=   1.0078250   1.0078250   1.0078250   1.0078250   1.0078250   1.0078250  15.9949146  15.9949146  15.9949146  31.9720718
 NucSpn=           1           1           1           1           1           1           0           0           0           0
 AtZEff=  -0.0000000  -0.0000000  -0.0000000  -0.0000000  -0.0000000  -0.0000000  -0.0000000  -0.0000000  -0.0000000  -0.0000000
 NQMom=    0.0000000   0.0000000   0.0000000   0.0000000   0.0000000   0.0000000   0.0000000   0.0000000   0.0000000   0.0000000
 NMagM=    2.7928460   2.7928460   2.7928460   2.7928460   2.7928460   2.7928460   0.0000000   0.0000000   0.0000000   0.0000000
 AtZNuc=   1.0000000   1.0000000   1.0000000   1.0000000   1.0000000   1.0000000   8.0000000   8.0000000   8.0000000  16.0000000

  Atom        31          32          33          34          35          36          37          38          39          40
 IAtWgt=          32          32          16          16          16          16          16          16          12          12
 AtmWgt=  31.9720718  31.9720718  15.9949146  15.9949146  15.9949146  15.9949146  15.9949146  15.9949146  12.0000000  12.0000000
 NucSpn=           0           0           0           0           0           0           0           0           0           0
 AtZEff=  -0.0000000  -0.0000000  -0.0000000  -0.0000000  -0.0000000  -0.0000000  -0.0000000  -0.0000000  -0.0000000  -0.0000000
 NQMom=    0.0000000   0.0000000   0.0000000   0.0000000   0.0000000   0.0000000   0.0000000   0.0000000   0.0000000   0.0000000
 NMagM=    0.0000000   0.0000000   0.0000000   0.0000000   0.0000000   0.0000000   0.0000000   0.0000000   0.0000000   0.0000000
 AtZNuc=  16.0000000  16.0000000   8.0000000   8.0000000   8.0000000   8.0000000   8.0000000   8.0000000   6.0000000   6.0000000

  Atom        41          42          43          44          45          46          47          48          49          50
 IAtWgt=          12          19          19          19          19          19          19          19          19          19
 AtmWgt=  12.0000000  18.9984032  18.9984032  18.9984032  18.9984032  18.9984032  18.9984032  18.9984032  18.9984032  18.9984032
 NucSpn=           0           1           1           1           1           1           1           1           1           1
 AtZEff=  -0.0000000  -0.0000000  -0.0000000  -0.0000000  -0.0000000  -0.0000000  -0.0000000  -0.0000000  -0.0000000  -0.0000000
 NQMom=    0.0000000   0.0000000   0.0000000   0.0000000   0.0000000   0.0000000   0.0000000   0.0000000   0.0000000   0.0000000
 NMagM=    0.0000000   2.6288670   2.6288670   2.6288670   2.6288670   2.6288670   2.6288670   2.6288670   2.6288670   2.6288670
 AtZNuc=   6.0000000   9.0000000   9.0000000   9.0000000   9.0000000   9.0000000   9.0000000   9.0000000   9.0000000   9.0000000

  Atom        51          52          53          54          55          56          57          58          59          60
 IAtWgt=          12           1          12          12          12          12          12          12           1           1
 AtmWgt=  12.0000000   1.0078250  12.0000000  12.0000000  12.0000000  12.0000000  12.0000000  12.0000000   1.0078250   1.0078250
 NucSpn=           0           1           0           0           0           0           0           0           1           1
 AtZEff=  -0.0000000  -0.0000000  -0.0000000  -0.0000000  -0.0000000  -0.0000000  -0.0000000  -0.0000000  -0.0000000  -0.0000000
 NQMom=    0.0000000   0.0000000   0.0000000   0.0000000   0.0000000   0.0000000   0.0000000   0.0000000   0.0000000   0.0000000
 NMagM=    0.0000000   2.7928460   0.0000000   0.0000000   0.0000000   0.0000000   0.0000000   0.0000000   2.7928460   2.7928460
 AtZNuc=   6.0000000   1.0000000   6.0000000   6.0000000   6.0000000   6.0000000   6.0000000   6.0000000   1.0000000   1.0000000

  Atom        61          62          63          64          65          66          67          68          69          70
 IAtWgt=           1          14          14          14          14          12           1          45          12           1
 AtmWgt=   1.0078250  14.0030740  14.0030740  14.0030740  14.0030740  12.0000000   1.0078250  44.9559136  12.0000000   1.0078250
 NucSpn=           1           2           2           2           2           0           1           7           0           1
 AtZEff=  -0.0000000  -0.0000000  -0.0000000  -0.0000000  -0.0000000  -0.0000000  -0.0000000  -0.0000000  -0.0000000  -0.0000000
 NQMom=    0.0000000   2.0440000   2.0440000   2.0440000   2.0440000   0.0000000   0.0000000 -22.0000000   0.0000000   0.0000000
 NMagM=    2.7928460   0.4037610   0.4037610   0.4037610   0.4037610   0.0000000   2.7928460   4.7564830   0.0000000   2.7928460
 AtZNuc=   1.0000000   7.0000000   7.0000000   7.0000000   7.0000000   6.0000000   1.0000000  21.0000000   6.0000000   1.0000000

  Atom        71
 IAtWgt=           1
 AtmWgt=   1.0078250
 NucSpn=           1
 AtZEff=  -0.0000000
 NQMom=    0.0000000
 NMagM=    2.7928460
 AtZNuc=   1.0000000
 Leave Link  101 at Thu Feb  6 20:56:33 2025, MaxMem= 82678120448 cpu:              10.2 elap:               0.5
 (Enter /sysapps/ubuntu-applications/gaussian-new/avx/g16/l103.exe)

 GradGradGradGradGradGradGradGradGradGradGradGradGradGradGradGradGradGrad
 Berny optimization.
 Initialization pass.
                           ----------------------------
                           !    Initial Parameters    !
                           ! (Angstroms and Degrees)  !
 --------------------------                            --------------------------
 ! Name  Definition              Value          Derivative Info.                !
 --------------------------------------------------------------------------------
 ! R1    R(1,2)                  1.4042         estimate D2E/DX2                !
 ! R2    R(1,6)                  1.4004         estimate D2E/DX2                !
 ! R3    R(1,51)                 1.516          estimate D2E/DX2                !
 ! R4    R(2,3)                  1.3934         estimate D2E/DX2                !
 ! R5    R(2,10)                 1.0947         estimate D2E/DX2                !
 ! R6    R(3,4)                  1.3983         estimate D2E/DX2                !
 ! R7    R(3,11)                 1.0923         estimate D2E/DX2                !
 ! R8    R(4,5)                  1.3943         estimate D2E/DX2                !
 ! R9    R(4,12)                 1.0923         estimate D2E/DX2                !
 ! R10   R(5,6)                  1.3986         estimate D2E/DX2                !
 ! R11   R(5,13)                 1.0922         estimate D2E/DX2                !
 ! R12   R(6,14)                 1.0919         estimate D2E/DX2                !
 ! R13   R(7,8)                  1.5214         estimate D2E/DX2                !
 ! R14   R(7,9)                  1.5211         estimate D2E/DX2                !
 ! R15   R(7,66)                 1.5939         estimate D2E/DX2                !
 ! R16   R(7,69)                 1.5545         estimate D2E/DX2                !
 ! R17   R(8,16)                 1.2312         estimate D2E/DX2                !
 ! R18   R(8,17)                 1.2955         estimate D2E/DX2                !
 ! R19   R(9,15)                 1.2366         estimate D2E/DX2                !
 ! R20   R(9,18)                 1.2913         estimate D2E/DX2                !
 ! R21   R(15,68)                2.1131         estimate D2E/DX2                !
 ! R22   R(16,68)                2.1528         estimate D2E/DX2                !
 ! R23   R(17,19)                1.4386         estimate D2E/DX2                !
 ! R24   R(18,20)                1.4427         estimate D2E/DX2                !
 ! R25   R(19,21)                1.0952         estimate D2E/DX2                !
 ! R26   R(19,22)                1.1008         estimate D2E/DX2                !
 ! R27   R(19,23)                1.0979         estimate D2E/DX2                !
 ! R28   R(20,24)                1.0935         estimate D2E/DX2                !
 ! R29   R(20,25)                1.0979         estimate D2E/DX2                !
 ! R30   R(20,26)                1.0986         estimate D2E/DX2                !
 ! R31   R(27,31)                1.4997         estimate D2E/DX2                !
 ! R32   R(27,68)                2.2246         estimate D2E/DX2                !
 ! R33   R(28,32)                1.5037         estimate D2E/DX2                !
 ! R34   R(28,68)                2.1809         estimate D2E/DX2                !
 ! R35   R(29,30)                1.4885         estimate D2E/DX2                !
 ! R36   R(29,68)                2.4085         estimate D2E/DX2                !
 ! R37   R(30,33)                1.5028         estimate D2E/DX2                !
 ! R38   R(30,34)                1.4388         estimate D2E/DX2                !
 ! R39   R(30,41)                1.8707         estimate D2E/DX2                !
 ! R40   R(30,68)                2.8657         estimate D2E/DX2                !
 ! R41   R(31,35)                1.4962         estimate D2E/DX2                !
 ! R42   R(31,36)                1.436          estimate D2E/DX2                !
 ! R43   R(31,40)                1.8411         estimate D2E/DX2                !
 ! R44   R(31,68)                2.8318         estimate D2E/DX2                !
 ! R45   R(32,37)                1.4886         estimate D2E/DX2                !
 ! R46   R(32,38)                1.4409         estimate D2E/DX2                !
 ! R47   R(32,39)                1.8708         estimate D2E/DX2                !
 ! R48   R(32,68)                2.8257         estimate D2E/DX2                !
 ! R49   R(33,68)                2.1673         estimate D2E/DX2                !
 ! R50   R(35,68)                2.254          estimate D2E/DX2                !
 ! R51   R(37,68)                2.299          estimate D2E/DX2                !
 ! R52   R(39,42)                1.3165         estimate D2E/DX2                !
 ! R53   R(39,43)                1.3179         estimate D2E/DX2                !
 ! R54   R(39,44)                1.3186         estimate D2E/DX2                !
 ! R55   R(40,45)                1.3221         estimate D2E/DX2                !
 ! R56   R(40,46)                1.3173         estimate D2E/DX2                !
 ! R57   R(40,47)                1.3168         estimate D2E/DX2                !
 ! R58   R(41,48)                1.327          estimate D2E/DX2                !
 ! R59   R(41,49)                1.3188         estimate D2E/DX2                !
 ! R60   R(41,50)                1.3146         estimate D2E/DX2                !
 ! R61   R(51,52)                1.1002         estimate D2E/DX2                !
 ! R62   R(51,53)                1.5508         estimate D2E/DX2                !
 ! R63   R(51,69)                1.5401         estimate D2E/DX2                !
 ! R64   R(53,54)                1.4791         estimate D2E/DX2                !
 ! R65   R(53,55)                1.4854         estimate D2E/DX2                !
 ! R66   R(53,64)                1.4609         estimate D2E/DX2                !
 ! R67   R(54,62)                1.1566         estimate D2E/DX2                !
 ! R68   R(55,63)                1.1573         estimate D2E/DX2                !
 ! R69   R(56,58)                1.3427         estimate D2E/DX2                !
 ! R70   R(56,59)                1.0901         estimate D2E/DX2                !
 ! R71   R(56,66)                1.5046         estimate D2E/DX2                !
 ! R72   R(57,58)                1.4576         estimate D2E/DX2                !
 ! R73   R(57,60)                1.0927         estimate D2E/DX2                !
 ! R74   R(57,65)                1.287          estimate D2E/DX2                !
 ! R75   R(58,61)                1.09           estimate D2E/DX2                !
 ! R76   R(64,65)                1.3573         estimate D2E/DX2                !
 ! R77   R(64,66)                1.4505         estimate D2E/DX2                !
 ! R78   R(66,67)                1.1199         estimate D2E/DX2                !
 ! R79   R(69,70)                1.0991         estimate D2E/DX2                !
 ! R80   R(69,71)                1.0998         estimate D2E/DX2                !
 ! A1    A(2,1,6)              118.6509         estimate D2E/DX2                !
 ! A2    A(2,1,51)             116.8349         estimate D2E/DX2                !
 ! A3    A(6,1,51)             124.5137         estimate D2E/DX2                !
 ! A4    A(1,2,3)              120.9321         estimate D2E/DX2                !
 ! A5    A(1,2,10)             119.0749         estimate D2E/DX2                !
 ! A6    A(3,2,10)             119.9912         estimate D2E/DX2                !
 ! A7    A(2,3,4)              119.9948         estimate D2E/DX2                !
 ! A8    A(2,3,11)             119.81           estimate D2E/DX2                !
 ! A9    A(4,3,11)             120.1925         estimate D2E/DX2                !
 ! A10   A(3,4,5)              119.5538         estimate D2E/DX2                !
 ! A11   A(3,4,12)             120.2362         estimate D2E/DX2                !
 ! A12   A(5,4,12)             120.209          estimate D2E/DX2                !
 ! A13   A(4,5,6)              120.4174         estimate D2E/DX2                !
 ! A14   A(4,5,13)             120.2373         estimate D2E/DX2                !
 ! A15   A(6,5,13)             119.3452         estimate D2E/DX2                !
 ! A16   A(1,6,5)              120.4504         estimate D2E/DX2                !
 ! A17   A(1,6,14)             121.5373         estimate D2E/DX2                !
 ! A18   A(5,6,14)             118.0102         estimate D2E/DX2                !
 ! A19   A(8,7,9)              111.2838         estimate D2E/DX2                !
 ! A20   A(8,7,66)             107.4722         estimate D2E/DX2                !
 ! A21   A(8,7,69)             111.9742         estimate D2E/DX2                !
 ! A22   A(9,7,66)             102.893          estimate D2E/DX2                !
 ! A23   A(9,7,69)             112.3811         estimate D2E/DX2                !
 ! A24   A(66,7,69)            110.351          estimate D2E/DX2                !
 ! A25   A(7,8,16)             126.7217         estimate D2E/DX2                !
 ! A26   A(7,8,17)             112.2377         estimate D2E/DX2                !
 ! A27   A(16,8,17)            120.9412         estimate D2E/DX2                !
 ! A28   A(7,9,15)             123.362          estimate D2E/DX2                !
 ! A29   A(7,9,18)             114.9296         estimate D2E/DX2                !
 ! A30   A(15,9,18)            121.2285         estimate D2E/DX2                !
 ! A31   A(9,15,68)            130.842          estimate D2E/DX2                !
 ! A32   A(8,16,68)            135.7936         estimate D2E/DX2                !
 ! A33   A(8,17,19)            118.0927         estimate D2E/DX2                !
 ! A34   A(9,18,20)            117.6784         estimate D2E/DX2                !
 ! A35   A(17,19,21)           106.0329         estimate D2E/DX2                !
 ! A36   A(17,19,22)           109.1209         estimate D2E/DX2                !
 ! A37   A(17,19,23)           109.8313         estimate D2E/DX2                !
 ! A38   A(21,19,22)           111.103          estimate D2E/DX2                !
 ! A39   A(21,19,23)           110.901          estimate D2E/DX2                !
 ! A40   A(22,19,23)           109.7723         estimate D2E/DX2                !
 ! A41   A(18,20,24)           106.0067         estimate D2E/DX2                !
 ! A42   A(18,20,25)           109.6699         estimate D2E/DX2                !
 ! A43   A(18,20,26)           109.1012         estimate D2E/DX2                !
 ! A44   A(24,20,25)           111.2708         estimate D2E/DX2                !
 ! A45   A(24,20,26)           110.7059         estimate D2E/DX2                !
 ! A46   A(25,20,26)           109.9899         estimate D2E/DX2                !
 ! A47   A(29,30,33)           104.9813         estimate D2E/DX2                !
 ! A48   A(29,30,34)           118.9288         estimate D2E/DX2                !
 ! A49   A(29,30,41)           104.8215         estimate D2E/DX2                !
 ! A50   A(33,30,34)           117.2523         estimate D2E/DX2                !
 ! A51   A(33,30,41)           103.3885         estimate D2E/DX2                !
 ! A52   A(34,30,41)           105.7329         estimate D2E/DX2                !
 ! A53   A(34,30,68)           137.9091         estimate D2E/DX2                !
 ! A54   A(41,30,68)           115.8372         estimate D2E/DX2                !
 ! A55   A(27,31,35)           103.1522         estimate D2E/DX2                !
 ! A56   A(27,31,36)           118.4384         estimate D2E/DX2                !
 ! A57   A(27,31,40)           102.7182         estimate D2E/DX2                !
 ! A58   A(35,31,36)           118.7616         estimate D2E/DX2                !
 ! A59   A(35,31,40)           103.7143         estimate D2E/DX2                !
 ! A60   A(36,31,40)           108.0349         estimate D2E/DX2                !
 ! A61   A(36,31,68)           145.8365         estimate D2E/DX2                !
 ! A62   A(40,31,68)           106.1097         estimate D2E/DX2                !
 ! A63   A(28,32,37)           103.9925         estimate D2E/DX2                !
 ! A64   A(28,32,38)           117.3654         estimate D2E/DX2                !
 ! A65   A(28,32,39)           104.3279         estimate D2E/DX2                !
 ! A66   A(37,32,38)           117.967          estimate D2E/DX2                !
 ! A67   A(37,32,39)           105.6026         estimate D2E/DX2                !
 ! A68   A(38,32,39)           106.247          estimate D2E/DX2                !
 ! A69   A(38,32,68)           140.0825         estimate D2E/DX2                !
 ! A70   A(39,32,68)           113.5346         estimate D2E/DX2                !
 ! A71   A(32,39,42)           109.3763         estimate D2E/DX2                !
 ! A72   A(32,39,43)           109.979          estimate D2E/DX2                !
 ! A73   A(32,39,44)           108.4221         estimate D2E/DX2                !
 ! A74   A(42,39,43)           109.9644         estimate D2E/DX2                !
 ! A75   A(42,39,44)           109.6172         estimate D2E/DX2                !
 ! A76   A(43,39,44)           109.4578         estimate D2E/DX2                !
 ! A77   A(31,40,45)           107.9907         estimate D2E/DX2                !
 ! A78   A(31,40,46)           109.3125         estimate D2E/DX2                !
 ! A79   A(31,40,47)           109.6549         estimate D2E/DX2                !
 ! A80   A(45,40,46)           109.8714         estimate D2E/DX2                !
 ! A81   A(45,40,47)           109.8976         estimate D2E/DX2                !
 ! A82   A(46,40,47)           110.0801         estimate D2E/DX2                !
 ! A83   A(30,41,48)           109.5099         estimate D2E/DX2                !
 ! A84   A(30,41,49)           109.9422         estimate D2E/DX2                !
 ! A85   A(30,41,50)           109.2326         estimate D2E/DX2                !
 ! A86   A(48,41,49)           108.9662         estimate D2E/DX2                !
 ! A87   A(48,41,50)           109.3154         estimate D2E/DX2                !
 ! A88   A(49,41,50)           109.8596         estimate D2E/DX2                !
 ! A89   A(1,51,52)            107.1255         estimate D2E/DX2                !
 ! A90   A(1,51,53)            116.9672         estimate D2E/DX2                !
 ! A91   A(1,51,69)            111.3158         estimate D2E/DX2                !
 ! A92   A(52,51,53)           102.5272         estimate D2E/DX2                !
 ! A93   A(52,51,69)           109.4311         estimate D2E/DX2                !
 ! A94   A(53,51,69)           108.9325         estimate D2E/DX2                !
 ! A95   A(51,53,54)           111.1691         estimate D2E/DX2                !
 ! A96   A(51,53,55)           112.452          estimate D2E/DX2                !
 ! A97   A(51,53,64)           107.7313         estimate D2E/DX2                !
 ! A98   A(54,53,55)           108.2198         estimate D2E/DX2                !
 ! A99   A(54,53,64)           109.6632         estimate D2E/DX2                !
 ! A100  A(55,53,64)           107.5214         estimate D2E/DX2                !
 ! A101  A(58,56,59)           121.8637         estimate D2E/DX2                !
 ! A102  A(58,56,66)           120.108          estimate D2E/DX2                !
 ! A103  A(59,56,66)           117.8618         estimate D2E/DX2                !
 ! A104  A(58,57,60)           121.3177         estimate D2E/DX2                !
 ! A105  A(58,57,65)           121.7891         estimate D2E/DX2                !
 ! A106  A(60,57,65)           116.8615         estimate D2E/DX2                !
 ! A107  A(56,58,57)           119.4582         estimate D2E/DX2                !
 ! A108  A(56,58,61)           121.0881         estimate D2E/DX2                !
 ! A109  A(57,58,61)           119.4461         estimate D2E/DX2                !
 ! A110  A(53,64,65)           113.3126         estimate D2E/DX2                !
 ! A111  A(53,64,66)           114.9316         estimate D2E/DX2                !
 ! A112  A(65,64,66)           123.9426         estimate D2E/DX2                !
 ! A113  A(57,65,64)           118.0763         estimate D2E/DX2                !
 ! A114  A(7,66,56)            113.2572         estimate D2E/DX2                !
 ! A115  A(7,66,64)            113.2604         estimate D2E/DX2                !
 ! A116  A(7,66,67)            106.1693         estimate D2E/DX2                !
 ! A117  A(56,66,64)           108.1679         estimate D2E/DX2                !
 ! A118  A(56,66,67)           109.136          estimate D2E/DX2                !
 ! A119  A(64,66,67)           106.5699         estimate D2E/DX2                !
 ! A120  A(15,68,16)            77.5157         estimate D2E/DX2                !
 ! A121  A(15,68,27)            91.2138         estimate D2E/DX2                !
 ! A122  A(15,68,28)           142.1929         estimate D2E/DX2                !
 ! A123  A(15,68,29)            73.2931         estimate D2E/DX2                !
 ! A124  A(15,68,30)           104.5619         estimate D2E/DX2                !
 ! A125  A(15,68,31)            93.3546         estimate D2E/DX2                !
 ! A126  A(15,68,32)           111.087          estimate D2E/DX2                !
 ! A127  A(15,68,33)           135.3621         estimate D2E/DX2                !
 ! A128  A(15,68,35)            89.9604         estimate D2E/DX2                !
 ! A129  A(15,68,37)            79.6474         estimate D2E/DX2                !
 ! A130  A(16,68,27)           148.3814         estimate D2E/DX2                !
 ! A131  A(16,68,28)            86.3551         estimate D2E/DX2                !
 ! A132  A(16,68,29)            73.0569         estimate D2E/DX2                !
 ! A133  A(16,68,30)            79.0439         estimate D2E/DX2                !
 ! A134  A(16,68,32)            81.1014         estimate D2E/DX2                !
 ! A135  A(16,68,33)            86.1454         estimate D2E/DX2                !
 ! A136  A(16,68,35)           144.5913         estimate D2E/DX2                !
 ! A137  A(16,68,37)            77.5024         estimate D2E/DX2                !
 ! A138  A(27,68,28)            84.9031         estimate D2E/DX2                !
 ! A139  A(27,68,29)           132.1673         estimate D2E/DX2                !
 ! A140  A(27,68,30)           132.5709         estimate D2E/DX2                !
 ! A141  A(27,68,32)            75.555          estimate D2E/DX2                !
 ! A142  A(27,68,33)           120.7909         estimate D2E/DX2                !
 ! A143  A(27,68,35)            63.2082         estimate D2E/DX2                !
 ! A144  A(27,68,37)            71.4019         estimate D2E/DX2                !
 ! A145  A(28,68,29)           133.9885         estimate D2E/DX2                !
 ! A146  A(28,68,30)           105.5824         estimate D2E/DX2                !
 ! A147  A(28,68,31)           102.2088         estimate D2E/DX2                !
 ! A148  A(28,68,33)            76.0334         estimate D2E/DX2                !
 ! A149  A(28,68,35)           120.7566         estimate D2E/DX2                !
 ! A150  A(28,68,37)            63.4501         estimate D2E/DX2                !
 ! A151  A(29,68,31)           102.7772         estimate D2E/DX2                !
 ! A152  A(29,68,32)           152.2774         estimate D2E/DX2                !
 ! A153  A(29,68,33)            62.2098         estimate D2E/DX2                !
 ! A154  A(29,68,35)            71.6292         estimate D2E/DX2                !
 ! A155  A(29,68,37)           143.4492         estimate D2E/DX2                !
 ! A156  A(30,68,31)           101.8226         estimate D2E/DX2                !
 ! A157  A(30,68,32)           133.8996         estimate D2E/DX2                !
 ! A158  A(30,68,35)            72.2194         estimate D2E/DX2                !
 ! A159  A(30,68,37)           154.6265         estimate D2E/DX2                !
 ! A160  A(31,68,32)           104.2184         estimate D2E/DX2                !
 ! A161  A(31,68,33)            99.3688         estimate D2E/DX2                !
 ! A162  A(31,68,37)           102.8946         estimate D2E/DX2                !
 ! A163  A(32,68,33)           106.8669         estimate D2E/DX2                !
 ! A164  A(32,68,35)           134.0701         estimate D2E/DX2                !
 ! A165  A(33,68,35)            79.8311         estimate D2E/DX2                !
 ! A166  A(33,68,37)           136.865          estimate D2E/DX2                !
 ! A167  A(35,68,37)           133.1392         estimate D2E/DX2                !
 ! A168  A(7,69,51)            115.8728         estimate D2E/DX2                !
 ! A169  A(7,69,70)            109.636          estimate D2E/DX2                !
 ! A170  A(7,69,71)            107.9178         estimate D2E/DX2                !
 ! A171  A(51,69,70)           108.5739         estimate D2E/DX2                !
 ! A172  A(51,69,71)           107.9554         estimate D2E/DX2                !
 ! A173  A(70,69,71)           106.4752         estimate D2E/DX2                !
 ! A174  L(53,54,62,3,-1)      177.3311         estimate D2E/DX2                !
 ! A175  L(53,55,63,2,-1)      179.7957         estimate D2E/DX2                !
 ! A176  L(16,68,31,15,-1)     170.8703         estimate D2E/DX2                !
 ! A177  L(53,54,62,3,-2)      181.1414         estimate D2E/DX2                !
 ! A178  L(53,55,63,2,-2)      182.6008         estimate D2E/DX2                !
 ! A179  L(16,68,31,15,-2)     181.8525         estimate D2E/DX2                !
 ! D1    D(6,1,2,3)              0.2386         estimate D2E/DX2                !
 ! D2    D(6,1,2,10)          -179.2668         estimate D2E/DX2                !
 ! D3    D(51,1,2,3)          -179.9984         estimate D2E/DX2                !
 ! D4    D(51,1,2,10)            0.4962         estimate D2E/DX2                !
 ! D5    D(2,1,6,5)             -0.0348         estimate D2E/DX2                !
 ! D6    D(2,1,6,14)           179.4167         estimate D2E/DX2                !
 ! D7    D(51,1,6,5)          -179.7781         estimate D2E/DX2                !
 ! D8    D(51,1,6,14)           -0.3266         estimate D2E/DX2                !
 ! D9    D(2,1,51,52)         -165.8458         estimate D2E/DX2                !
 ! D10   D(2,1,51,53)           79.8594         estimate D2E/DX2                !
 ! D11   D(2,1,51,69)          -46.2484         estimate D2E/DX2                !
 ! D12   D(6,1,51,52)           13.9017         estimate D2E/DX2                !
 ! D13   D(6,1,51,53)         -100.3931         estimate D2E/DX2                !
 ! D14   D(6,1,51,69)          133.4991         estimate D2E/DX2                !
 ! D15   D(1,2,3,4)             -0.2235         estimate D2E/DX2                !
 ! D16   D(1,2,3,11)          -179.6261         estimate D2E/DX2                !
 ! D17   D(10,2,3,4)           179.2774         estimate D2E/DX2                !
 ! D18   D(10,2,3,11)           -0.1252         estimate D2E/DX2                !
 ! D19   D(2,3,4,5)              0.0014         estimate D2E/DX2                !
 ! D20   D(2,3,4,12)          -179.6239         estimate D2E/DX2                !
 ! D21   D(11,3,4,5)           179.4017         estimate D2E/DX2                !
 ! D22   D(11,3,4,12)           -0.2237         estimate D2E/DX2                !
 ! D23   D(3,4,5,6)              0.201          estimate D2E/DX2                !
 ! D24   D(3,4,5,13)          -179.6623         estimate D2E/DX2                !
 ! D25   D(12,4,5,6)           179.8265         estimate D2E/DX2                !
 ! D26   D(12,4,5,13)           -0.0369         estimate D2E/DX2                !
 ! D27   D(4,5,6,1)             -0.1844         estimate D2E/DX2                !
 ! D28   D(4,5,6,14)          -179.6549         estimate D2E/DX2                !
 ! D29   D(13,5,6,1)           179.6802         estimate D2E/DX2                !
 ! D30   D(13,5,6,14)            0.2097         estimate D2E/DX2                !
 ! D31   D(9,7,8,16)            10.5478         estimate D2E/DX2                !
 ! D32   D(9,7,8,17)          -173.0791         estimate D2E/DX2                !
 ! D33   D(66,7,8,16)         -101.3941         estimate D2E/DX2                !
 ! D34   D(66,7,8,17)           74.9791         estimate D2E/DX2                !
 ! D35   D(69,7,8,16)          137.2628         estimate D2E/DX2                !
 ! D36   D(69,7,8,17)          -46.364          estimate D2E/DX2                !
 ! D37   D(8,7,9,15)           -32.547          estimate D2E/DX2                !
 ! D38   D(8,7,9,18)           155.3287         estimate D2E/DX2                !
 ! D39   D(66,7,9,15)           82.2703         estimate D2E/DX2                !
 ! D40   D(66,7,9,18)          -89.8541         estimate D2E/DX2                !
 ! D41   D(69,7,9,15)         -159.0387         estimate D2E/DX2                !
 ! D42   D(69,7,9,18)           28.8369         estimate D2E/DX2                !
 ! D43   D(8,7,66,56)           41.9044         estimate D2E/DX2                !
 ! D44   D(8,7,66,64)          -81.7476         estimate D2E/DX2                !
 ! D45   D(8,7,66,67)          161.6476         estimate D2E/DX2                !
 ! D46   D(9,7,66,56)          -75.64           estimate D2E/DX2                !
 ! D47   D(9,7,66,64)          160.7079         estimate D2E/DX2                !
 ! D48   D(9,7,66,67)           44.1032         estimate D2E/DX2                !
 ! D49   D(69,7,66,56)         164.2591         estimate D2E/DX2                !
 ! D50   D(69,7,66,64)          40.6071         estimate D2E/DX2                !
 ! D51   D(69,7,66,67)         -75.9977         estimate D2E/DX2                !
 ! D52   D(8,7,69,51)           78.6345         estimate D2E/DX2                !
 ! D53   D(8,7,69,70)          -44.6578         estimate D2E/DX2                !
 ! D54   D(8,7,69,71)         -160.2411         estimate D2E/DX2                !
 ! D55   D(9,7,69,51)         -155.2464         estimate D2E/DX2                !
 ! D56   D(9,7,69,70)           81.4613         estimate D2E/DX2                !
 ! D57   D(9,7,69,71)          -34.122          estimate D2E/DX2                !
 ! D58   D(66,7,69,51)         -41.0344         estimate D2E/DX2                !
 ! D59   D(66,7,69,70)        -164.3267         estimate D2E/DX2                !
 ! D60   D(66,7,69,71)          80.09           estimate D2E/DX2                !
 ! D61   D(7,8,16,68)           -7.4886         estimate D2E/DX2                !
 ! D62   D(17,8,16,68)         176.4259         estimate D2E/DX2                !
 ! D63   D(7,8,17,19)         -170.1255         estimate D2E/DX2                !
 ! D64   D(16,8,17,19)           6.4854         estimate D2E/DX2                !
 ! D65   D(7,9,15,68)           53.3575         estimate D2E/DX2                !
 ! D66   D(18,9,15,68)        -134.9978         estimate D2E/DX2                !
 ! D67   D(7,9,18,20)          172.5907         estimate D2E/DX2                !
 ! D68   D(15,9,18,20)           0.282          estimate D2E/DX2                !
 ! D69   D(9,15,68,16)         -35.5267         estimate D2E/DX2                !
 ! D70   D(9,15,68,27)         174.2827         estimate D2E/DX2                !
 ! D71   D(9,15,68,28)        -102.4738         estimate D2E/DX2                !
 ! D72   D(9,15,68,29)          40.2809         estimate D2E/DX2                !
 ! D73   D(9,15,68,30)          39.4842         estimate D2E/DX2                !
 ! D74   D(9,15,68,31)         142.6208         estimate D2E/DX2                !
 ! D75   D(9,15,68,32)        -110.7425         estimate D2E/DX2                !
 ! D76   D(9,15,68,33)          35.6762         estimate D2E/DX2                !
 ! D77   D(9,15,68,35)         111.0819         estimate D2E/DX2                !
 ! D78   D(9,15,68,37)        -114.8737         estimate D2E/DX2                !
 ! D79   D(8,16,68,15)          12.8524         estimate D2E/DX2                !
 ! D80   D(8,16,68,27)          84.2956         estimate D2E/DX2                !
 ! D81   D(8,16,68,28)         158.4365         estimate D2E/DX2                !
 ! D82   D(8,16,68,29)         -63.2405         estimate D2E/DX2                !
 ! D83   D(8,16,68,30)         -94.9152         estimate D2E/DX2                !
 ! D84   D(8,16,68,32)         126.9099         estimate D2E/DX2                !
 ! D85   D(8,16,68,33)        -125.338          estimate D2E/DX2                !
 ! D86   D(8,16,68,35)         -58.9274         estimate D2E/DX2                !
 ! D87   D(8,16,68,37)          94.8364         estimate D2E/DX2                !
 ! D88   D(8,17,19,21)         175.9944         estimate D2E/DX2                !
 ! D89   D(8,17,19,22)          56.2509         estimate D2E/DX2                !
 ! D90   D(8,17,19,23)         -64.1227         estimate D2E/DX2                !
 ! D91   D(9,18,20,24)         178.951          estimate D2E/DX2                !
 ! D92   D(9,18,20,25)          58.7297         estimate D2E/DX2                !
 ! D93   D(9,18,20,26)         -61.7998         estimate D2E/DX2                !
 ! D94   D(29,30,41,48)          0.8063         estimate D2E/DX2                !
 ! D95   D(29,30,41,49)       -118.887          estimate D2E/DX2                !
 ! D96   D(29,30,41,50)        120.4939         estimate D2E/DX2                !
 ! D97   D(33,30,41,48)        110.5525         estimate D2E/DX2                !
 ! D98   D(33,30,41,49)         -9.1408         estimate D2E/DX2                !
 ! D99   D(33,30,41,50)       -129.7599         estimate D2E/DX2                !
 ! D100  D(34,30,41,48)       -125.6627         estimate D2E/DX2                !
 ! D101  D(34,30,41,49)        114.644          estimate D2E/DX2                !
 ! D102  D(34,30,41,50)         -5.9752         estimate D2E/DX2                !
 ! D103  D(68,30,41,48)         61.1197         estimate D2E/DX2                !
 ! D104  D(68,30,41,49)        -58.5736         estimate D2E/DX2                !
 ! D105  D(68,30,41,50)       -179.1927         estimate D2E/DX2                !
 ! D106  D(34,30,68,15)         99.7617         estimate D2E/DX2                !
 ! D107  D(34,30,68,16)        173.6339         estimate D2E/DX2                !
 ! D108  D(34,30,68,27)         -5.8042         estimate D2E/DX2                !
 ! D109  D(34,30,68,28)       -103.3279         estimate D2E/DX2                !
 ! D110  D(34,30,68,31)          3.0921         estimate D2E/DX2                !
 ! D111  D(34,30,68,32)       -120.2541         estimate D2E/DX2                !
 ! D112  D(34,30,68,35)         14.5834         estimate D2E/DX2                !
 ! D113  D(34,30,68,37)       -163.6668         estimate D2E/DX2                !
 ! D114  D(41,30,68,15)        -90.002          estimate D2E/DX2                !
 ! D115  D(41,30,68,16)        -16.1298         estimate D2E/DX2                !
 ! D116  D(41,30,68,27)        164.432          estimate D2E/DX2                !
 ! D117  D(41,30,68,28)         66.9083         estimate D2E/DX2                !
 ! D118  D(41,30,68,31)        173.3284         estimate D2E/DX2                !
 ! D119  D(41,30,68,32)         49.9822         estimate D2E/DX2                !
 ! D120  D(41,30,68,35)       -175.1803         estimate D2E/DX2                !
 ! D121  D(41,30,68,37)          6.5695         estimate D2E/DX2                !
 ! D122  D(27,31,40,45)         54.1757         estimate D2E/DX2                !
 ! D123  D(27,31,40,46)        -65.329          estimate D2E/DX2                !
 ! D124  D(27,31,40,47)        173.9088         estimate D2E/DX2                !
 ! D125  D(35,31,40,45)        -52.993          estimate D2E/DX2                !
 ! D126  D(35,31,40,46)       -172.4976         estimate D2E/DX2                !
 ! D127  D(35,31,40,47)         66.7401         estimate D2E/DX2                !
 ! D128  D(36,31,40,45)       -179.8869         estimate D2E/DX2                !
 ! D129  D(36,31,40,46)         60.6084         estimate D2E/DX2                !
 ! D130  D(36,31,40,47)        -60.1538         estimate D2E/DX2                !
 ! D131  D(68,31,40,45)          1.2663         estimate D2E/DX2                !
 ! D132  D(68,31,40,46)       -118.2383         estimate D2E/DX2                !
 ! D133  D(68,31,40,47)        120.9994         estimate D2E/DX2                !
 ! D134  D(36,31,68,15)          2.3786         estimate D2E/DX2                !
 ! D135  D(36,31,68,28)       -142.9504         estimate D2E/DX2                !
 ! D136  D(36,31,68,29)         75.9996         estimate D2E/DX2                !
 ! D137  D(36,31,68,30)        108.0181         estimate D2E/DX2                !
 ! D138  D(36,31,68,32)       -110.3673         estimate D2E/DX2                !
 ! D139  D(36,31,68,33)        139.4405         estimate D2E/DX2                !
 ! D140  D(36,31,68,37)        -77.7608         estimate D2E/DX2                !
 ! D141  D(40,31,68,15)       -179.5744         estimate D2E/DX2                !
 ! D142  D(40,31,68,28)         35.0966         estimate D2E/DX2                !
 ! D143  D(40,31,68,29)       -105.9534         estimate D2E/DX2                !
 ! D144  D(40,31,68,30)        -73.9348         estimate D2E/DX2                !
 ! D145  D(40,31,68,32)         67.6797         estimate D2E/DX2                !
 ! D146  D(40,31,68,33)        -42.5125         estimate D2E/DX2                !
 ! D147  D(40,31,68,37)        100.2862         estimate D2E/DX2                !
 ! D148  D(28,32,39,42)        125.6036         estimate D2E/DX2                !
 ! D149  D(28,32,39,43)          4.7416         estimate D2E/DX2                !
 ! D150  D(28,32,39,44)       -114.9072         estimate D2E/DX2                !
 ! D151  D(37,32,39,42)         16.3087         estimate D2E/DX2                !
 ! D152  D(37,32,39,43)       -104.5533         estimate D2E/DX2                !
 ! D153  D(37,32,39,44)        135.7978         estimate D2E/DX2                !
 ! D154  D(38,32,39,42)       -109.7446         estimate D2E/DX2                !
 ! D155  D(38,32,39,43)        129.3934         estimate D2E/DX2                !
 ! D156  D(38,32,39,44)          9.7446         estimate D2E/DX2                !
 ! D157  D(68,32,39,42)         73.6236         estimate D2E/DX2                !
 ! D158  D(68,32,39,43)        -47.2385         estimate D2E/DX2                !
 ! D159  D(68,32,39,44)       -166.8873         estimate D2E/DX2                !
 ! D160  D(38,32,68,15)         84.5446         estimate D2E/DX2                !
 ! D161  D(38,32,68,16)         11.6951         estimate D2E/DX2                !
 ! D162  D(38,32,68,27)        170.1925         estimate D2E/DX2                !
 ! D163  D(38,32,68,29)         -9.5523         estimate D2E/DX2                !
 ! D164  D(38,32,68,30)        -53.6188         estimate D2E/DX2                !
 ! D165  D(38,32,68,31)       -176.109          estimate D2E/DX2                !
 ! D166  D(38,32,68,33)        -71.4951         estimate D2E/DX2                !
 ! D167  D(38,32,68,35)       -163.6004         estimate D2E/DX2                !
 ! D168  D(39,32,68,15)       -100.4984         estimate D2E/DX2                !
 ! D169  D(39,32,68,16)       -173.3478         estimate D2E/DX2                !
 ! D170  D(39,32,68,27)        -14.8504         estimate D2E/DX2                !
 ! D171  D(39,32,68,29)        165.4047         estimate D2E/DX2                !
 ! D172  D(39,32,68,30)        121.3383         estimate D2E/DX2                !
 ! D173  D(39,32,68,31)         -1.1519         estimate D2E/DX2                !
 ! D174  D(39,32,68,33)        103.462          estimate D2E/DX2                !
 ! D175  D(39,32,68,35)         11.3567         estimate D2E/DX2                !
 ! D176  D(1,51,53,54)          52.183          estimate D2E/DX2                !
 ! D177  D(1,51,53,55)         -69.3383         estimate D2E/DX2                !
 ! D178  D(1,51,53,64)         172.359          estimate D2E/DX2                !
 ! D179  D(52,51,53,54)        -64.657          estimate D2E/DX2                !
 ! D180  D(52,51,53,55)        173.8218         estimate D2E/DX2                !
 ! D181  D(52,51,53,64)         55.5191         estimate D2E/DX2                !
 ! D182  D(69,51,53,54)        179.4628         estimate D2E/DX2                !
 ! D183  D(69,51,53,55)         57.9415         estimate D2E/DX2                !
 ! D184  D(69,51,53,64)        -60.3611         estimate D2E/DX2                !
 ! D185  D(1,51,69,7)         -177.7901         estimate D2E/DX2                !
 ! D186  D(1,51,69,70)         -53.9434         estimate D2E/DX2                !
 ! D187  D(1,51,69,71)          61.1057         estimate D2E/DX2                !
 ! D188  D(52,51,69,7)         -59.5719         estimate D2E/DX2                !
 ! D189  D(52,51,69,70)         64.2748         estimate D2E/DX2                !
 ! D190  D(52,51,69,71)        179.3239         estimate D2E/DX2                !
 ! D191  D(53,51,69,7)          51.784          estimate D2E/DX2                !
 ! D192  D(53,51,69,70)        175.6307         estimate D2E/DX2                !
 ! D193  D(53,51,69,71)        -69.3202         estimate D2E/DX2                !
 ! D194  D(51,53,64,65)        -85.2681         estimate D2E/DX2                !
 ! D195  D(51,53,64,66)         65.2838         estimate D2E/DX2                !
 ! D196  D(54,53,64,65)         35.8539         estimate D2E/DX2                !
 ! D197  D(54,53,64,66)       -173.5942         estimate D2E/DX2                !
 ! D198  D(55,53,64,65)        153.305          estimate D2E/DX2                !
 ! D199  D(55,53,64,66)        -56.1431         estimate D2E/DX2                !
 ! D200  D(59,56,58,57)        178.3586         estimate D2E/DX2                !
 ! D201  D(59,56,58,61)         -0.6355         estimate D2E/DX2                !
 ! D202  D(66,56,58,57)         -6.4329         estimate D2E/DX2                !
 ! D203  D(66,56,58,61)        174.573          estimate D2E/DX2                !
 ! D204  D(58,56,66,7)        -101.7463         estimate D2E/DX2                !
 ! D205  D(58,56,66,64)         24.6545         estimate D2E/DX2                !
 ! D206  D(58,56,66,67)        140.2218         estimate D2E/DX2                !
 ! D207  D(59,56,66,7)          73.6511         estimate D2E/DX2                !
 ! D208  D(59,56,66,64)       -159.9481         estimate D2E/DX2                !
 ! D209  D(59,56,66,67)        -44.3808         estimate D2E/DX2                !
 ! D210  D(60,57,58,56)        174.7089         estimate D2E/DX2                !
 ! D211  D(60,57,58,61)         -6.2803         estimate D2E/DX2                !
 ! D212  D(65,57,58,56)         -7.4012         estimate D2E/DX2                !
 ! D213  D(65,57,58,61)        171.6096         estimate D2E/DX2                !
 ! D214  D(58,57,65,64)         -0.9216         estimate D2E/DX2                !
 ! D215  D(60,57,65,64)        177.0578         estimate D2E/DX2                !
 ! D216  D(53,64,65,57)        172.0929         estimate D2E/DX2                !
 ! D217  D(66,64,65,57)         24.5993         estimate D2E/DX2                !
 ! D218  D(53,64,66,7)         -55.6372         estimate D2E/DX2                !
 ! D219  D(53,64,66,56)        177.9638         estimate D2E/DX2                !
 ! D220  D(53,64,66,67)         60.7314         estimate D2E/DX2                !
 ! D221  D(65,64,66,7)          91.3902         estimate D2E/DX2                !
 ! D222  D(65,64,66,56)        -35.0087         estimate D2E/DX2                !
 ! D223  D(65,64,66,67)       -152.2411         estimate D2E/DX2                !
 --------------------------------------------------------------------------------
 Trust Radius=3.00D-01 FncErr=1.00D-07 GrdErr=1.00D-06 EigMax=2.50D+02 EigMin=1.00D-04
 Number of steps in this run=    426 maximum allowed number of steps=    426.
 GradGradGradGradGradGradGradGradGradGradGradGradGradGradGradGradGradGrad

 Leave Link  103 at Thu Feb  6 20:56:33 2025, MaxMem= 82678120448 cpu:               1.5 elap:               0.1
 (Enter /sysapps/ubuntu-applications/gaussian-new/avx/g16/l202.exe)
 Stoichiometry    C23H18F9N4O13S3Sc
 Framework group  C1[X(C23H18F9N4O13S3Sc)]
 Deg. of freedom   207
 Full point group                 C1      NOp   1
 Largest Abelian subgroup         C1      NOp   1
 Largest concise Abelian subgroup C1      NOp   1
                         Standard orientation:                         
 ---------------------------------------------------------------------
 Center     Atomic      Atomic             Coordinates (Angstroms)
 Number     Number       Type             X           Y           Z
 ---------------------------------------------------------------------
      1          6           0        5.584235   -0.714453    0.080955
      2          6           0        5.813654   -1.405432    1.281661
      3          6           0        6.897404   -2.271254    1.413975
      4          6           0        7.772177   -2.465383    0.340490
      5          6           0        7.551215   -1.787869   -0.857899
      6          6           0        6.465604   -0.915746   -0.988547
      7          6           0        1.816257    0.344298    0.580874
      8          6           0        1.179333    0.335630   -0.800740
      9          6           0        0.824057   -0.089734    1.648994
     10          1           0        5.122078   -1.262540    2.118190
     11          1           0        7.055040   -2.804139    2.354341
     12          1           0        8.619420   -3.147831    0.437855
     13          1           0        8.224257   -1.935388   -1.705290
     14          1           0        6.326418   -0.410108   -1.946241
     15          8           0       -0.388867    0.142677    1.585186
     16          8           0       -0.017238    0.204026   -1.058914
     17          8           0        2.042380    0.562574   -1.739926
     18          8           0        1.355511   -0.585180    2.716434
     19          6           0        1.549249    0.797599   -3.070743
     20          6           0        0.483706   -0.864539    3.831494
     21          1           0        2.426977    1.036027   -3.680852
     22          1           0        0.840860    1.639854   -3.049269
     23          1           0        1.044636   -0.102669   -3.445387
     24          1           0        1.120071   -1.289294    4.612755
     25          1           0       -0.295262   -1.573928    3.522861
     26          1           0        0.023974    0.073298    4.172162
     27          8           0       -3.465174    0.447882    1.347762
     28          8           0       -2.899563    0.687096   -1.561872
     29          8           0       -0.352233   -2.186145    0.201320
     30         16           0       -1.070337   -2.857462   -0.916338
     31         16           0       -3.855500   -0.890706    1.899939
     32         16           0       -2.671398    2.122184   -1.174925
     33          8           0       -2.100579   -1.861755   -1.369837
     34          8           0       -1.500255   -4.220206   -0.748451
     35          8           0       -2.783319   -1.797698    1.383756
     36          8           0       -4.226610   -0.977520    3.284419
     37          8           0       -1.811891    2.035807    0.037368
     38          8           0       -2.278428    3.035044   -2.218235
     39          6           0       -4.340687    2.708901   -0.567448
     40          6           0       -5.327315   -1.333723    0.886433
     41          6           0        0.157769   -2.883170   -2.327278
     42          9           0       -4.213559    3.209467    0.643473
     43          9           0       -5.192903    1.703704   -0.551661
     44          9           0       -4.778334    3.642952   -1.388911
     45          9           0       -4.984007   -1.255900   -0.387915
     46          9           0       -6.302408   -0.485099    1.140107
     47          9           0       -5.709676   -2.560637    1.173434
     48          9           0        1.296093   -2.325936   -1.934195
     49          9           0       -0.320196   -2.204549   -3.352038
     50          9           0        0.383225   -4.128620   -2.682492
     51          6           0        4.378364    0.203324    0.039195
     52          1           0        4.199002    0.454751   -1.016780
     53          6           0        4.534260    1.599664    0.695648
     54          6           0        5.729612    2.301842    0.180029
     55          6           0        4.643296    1.522051    2.175004
     56          6           0        0.989012    2.796617    0.589602
     57          6           0        2.339979    3.585182   -1.255774
     58          6           0        1.088075    3.561264   -0.509661
     59          1           0        0.080716    2.769397    1.191713
     60          1           0        2.428154    4.128041   -2.199985
     61          1           0        0.253124    4.176886   -0.844125
     62          7           0        6.697398    2.812591   -0.194585
     63          7           0        4.682135    1.438305    3.328609
     64          7           0        3.335937    2.374567    0.383011
     65          7           0        3.401650    3.004532   -0.817497
     66          6           0        2.108718    1.863702    0.963487
     67          1           0        2.248173    1.884248    2.074469
     68         21           0       -1.795380   -0.263018    0.061238
     69          6           0        3.129945   -0.485773    0.620982
     70          1           0        2.980163   -1.439842    0.096280
     71          1           0        3.339617   -0.736857    1.671033
 ---------------------------------------------------------------------
 Rotational constants (GHZ):           0.0847554           0.0355877           0.0320305
 Leave Link  202 at Thu Feb  6 20:56:33 2025, MaxMem= 82678120448 cpu:               1.5 elap:               0.1
 (Enter /sysapps/ubuntu-applications/gaussian-new/avx/g16/l301.exe)
 General basis read from cards:  (5D, 7F)
 Centers:      10     11     12     13     14     21     22     23     24     25
 Centers:      26     52     59     60     61     67     70     71
 S 3 1.00
     Exponent=  1.3010701000D+01 Coefficients=  1.9682158000D-02
     Exponent=  1.9622572000D+00 Coefficients=  1.3796524000D-01
     Exponent=  4.4453796000D-01 Coefficients=  4.7831935000D-01
 S 1 1.00
     Exponent=  1.2194962000D-01 Coefficients=  1.0000000000D+00
 P 1 1.00
     Exponent=  8.0000000000D-01 Coefficients=  1.0000000000D+00
 ****
 Centers:       1      2      3      4      5      6      7      8      9     19
 Centers:      20     39     40     41     51     53     54     55     56     57
 Centers:      58     66     69
 S 5 1.00
     Exponent=  1.2384016938D+03 Coefficients=  5.4568832082D-03
     Exponent=  1.8629004992D+02 Coefficients=  4.0638409211D-02
     Exponent=  4.2251176346D+01 Coefficients=  1.8025593888D-01
     Exponent=  1.1676557932D+01 Coefficients=  4.6315121755D-01
     Exponent=  3.5930506482D+00 Coefficients=  4.4087173314D-01
 S 1 1.00
     Exponent=  4.0245147363D-01 Coefficients=  1.0000000000D+00
 S 1 1.00
     Exponent=  1.3090182668D-01 Coefficients=  1.0000000000D+00
 P 3 1.00
     Exponent=  9.4680970621D+00 Coefficients=  3.8387871728D-02
     Exponent=  2.0103545142D+00 Coefficients=  2.1117025112D-01
     Exponent=  5.4771004707D-01 Coefficients=  5.1328172114D-01
 P 1 1.00
     Exponent=  1.5268613795D-01 Coefficients=  1.0000000000D+00
 D 1 1.00
     Exponent=  8.0000000000D-01 Coefficients=  1.0000000000D+00
 ****
 Centers:      62     63     64     65
 S 5 1.00
     Exponent=  1.7128415853D+03 Coefficients= -5.3934125305D-03
     Exponent=  2.5764812677D+02 Coefficients= -4.0221581118D-02
     Exponent=  5.8458245853D+01 Coefficients= -1.7931144990D-01
     Exponent=  1.6198367905D+01 Coefficients= -4.6376317823D-01
     Exponent=  5.0052600809D+00 Coefficients= -4.4171422662D-01
 S 1 1.00
     Exponent=  5.8731856571D-01 Coefficients=  1.0000000000D+00
 S 1 1.00
     Exponent=  1.8764592253D-01 Coefficients=  1.0000000000D+00
 P 3 1.00
     Exponent=  1.3571470233D+01 Coefficients= -4.0072398852D-02
     Exponent=  2.9257372874D+00 Coefficients= -2.1807045028D-01
     Exponent=  7.9927750754D-01 Coefficients= -5.1294466049D-01
 P 1 1.00
     Exponent=  2.1954348034D-01 Coefficients=  1.0000000000D+00
 D 1 1.00
     Exponent=  1.0000000000D+00 Coefficients=  1.0000000000D+00
 ****
 Centers:      15     16     17     18     27     28     29     33     34     35
 Centers:      36     37     38
 S 5 1.00
     Exponent=  2.2661767785D+03 Coefficients= -5.3431809926D-03
     Exponent=  3.4087010191D+02 Coefficients= -3.9890039230D-02
     Exponent=  7.7363135167D+01 Coefficients= -1.7853911985D-01
     Exponent=  2.1479644940D+01 Coefficients= -4.6427684959D-01
     Exponent=  6.6589433124D+00 Coefficients= -4.4309745172D-01
 S 1 1.00
     Exponent=  8.0975975668D-01 Coefficients=  1.0000000000D+00
 S 1 1.00
     Exponent=  2.5530772234D-01 Coefficients=  1.0000000000D+00
 P 3 1.00
     Exponent=  1.7721504317D+01 Coefficients=  4.3394573193D-02
     Exponent=  3.8635505440D+00 Coefficients=  2.3094120765D-01
     Exponent=  1.0480920883D+00 Coefficients=  5.1375311064D-01
 P 1 1.00
     Exponent=  2.7641544411D-01 Coefficients=  1.0000000000D+00
 D 1 1.00
     Exponent=  1.2000000000D+00 Coefficients=  1.0000000000D+00
 ****
 Centers:      42     43     44     45     46     47     48     49     50
 S 5 1.00
     Exponent=  2.8948325990D+03 Coefficients= -5.3408255515D-03
     Exponent=  4.3541939120D+02 Coefficients= -3.9904258866D-02
     Exponent=  9.8843328866D+01 Coefficients= -1.7912768038D-01
     Exponent=  2.7485198001D+01 Coefficients= -4.6758090825D-01
     Exponent=  8.5405498171D+00 Coefficients= -4.4653131020D-01
 S 1 1.00
     Exponent=  1.0654578038D+00 Coefficients=  1.0000000000D+00
 S 1 1.00
     Exponent=  3.3247346748D-01 Coefficients=  1.0000000000D+00
 P 3 1.00
     Exponent=  2.2696633924D+01 Coefficients= -4.5212874436D-02
     Exponent=  4.9872339257D+00 Coefficients= -2.3754317067D-01
     Exponent=  1.3491613954D+00 Coefficients= -5.1287353587D-01
 P 1 1.00
     Exponent=  3.4829881977D-01 Coefficients=  1.0000000000D+00
 D 1 1.00
     Exponent=  1.4000000000D+00 Coefficients=  1.0000000000D+00
 ****
 Centers:      30     31     32
 S 5 1.00
     Exponent=  9.1849303010D+03 Coefficients= -2.2294387756D-03
     Exponent=  1.3815105503D+03 Coefficients= -1.6683029937D-02
     Exponent=  3.1387147580D+02 Coefficients= -7.5262436116D-02
     Exponent=  8.8053870623D+01 Coefficients= -1.9376827038D-01
     Exponent=  2.7039914905D+01 Coefficients= -1.7718020803D-01
 S 3 1.00
     Exponent=  4.5648731303D+01 Coefficients= -1.0736062573D-01
     Exponent=  4.9664522326D+00 Coefficients=  6.5066293018D-01
     Exponent=  2.0116242047D+00 Coefficients=  5.9712155354D-01
 S 1 1.00
     Exponent=  3.5661077013D-01 Coefficients=  1.0000000000D+00
 S 1 1.00
     Exponent=  1.3507221477D-01 Coefficients=  1.0000000000D+00
 P 5 1.00
     Exponent=  2.6198233439D+02 Coefficients= -9.2729929822D-03
     Exponent=  6.1306894736D+01 Coefficients= -6.6547669241D-02
     Exponent=  1.9103729887D+01 Coefficients= -2.4828595903D-01
     Exponent=  6.6567720378D+00 Coefficients= -4.8703847402D-01
     Exponent=  2.3959635161D+00 Coefficients= -3.9337850312D-01
 P 1 1.00
     Exponent=  6.1776161679D-01 Coefficients=  1.0000000000D+00
 P 1 1.00
     Exponent=  1.6993376871D-01 Coefficients=  1.0000000000D+00
 D 1 1.00
     Exponent=  5.5000000000D-01 Coefficients=  1.0000000000D+00
 ****
 Centers:      68
 S 8 1.00
     Exponent=  1.9161291874D+05 Coefficients=  2.3076475942D-04
     Exponent=  2.8723850363D+04 Coefficients=  1.7890329946D-03
     Exponent=  6.5370116490D+03 Coefficients=  9.2990401140D-03
     Exponent=  1.8503097171D+03 Coefficients=  3.7739438011D-02
     Exponent=  6.0238855156D+02 Coefficients=  1.2227148359D-01
     Exponent=  2.1617324766D+02 Coefficients=  2.8814821470D-01
     Exponent=  8.3712517880D+01 Coefficients=  4.0517543099D-01
     Exponent=  3.2908707189D+01 Coefficients=  2.0566019623D-01
 S 4 1.00
     Exponent=  2.1134393234D+02 Coefficients= -2.4527991462D-02
     Exponent=  6.5128920139D+01 Coefficients= -1.1570158142D-01
     Exponent=  1.0034311535D+01 Coefficients=  5.5995283317D-01
     Exponent=  4.1596884597D+00 Coefficients=  5.6087765073D-01
 S 2 1.00
     Exponent=  6.0009041613D+00 Coefficients= -2.2840494325D-01
     Exponent=  9.8255784150D-01 Coefficients=  7.1948970378D-01
 S 1 1.00
     Exponent=  4.2483192773D-01 Coefficients=  1.0000000000D+00
 S 1 1.00
     Exponent=  7.7185462096D-02 Coefficients=  1.0000000000D+00
 S 1 1.00
     Exponent=  3.0147219702D-02 Coefficients=  1.0000000000D+00
 P 6 1.00
     Exponent=  9.4734122823D+02 Coefficients=  2.4737208744D-03
     Exponent=  2.2409699732D+02 Coefficients=  1.9742967060D-02
     Exponent=  7.1560334882D+01 Coefficients=  9.0357147549D-02
     Exponent=  2.6444824490D+01 Coefficients=  2.5201602503D-01
     Exponent=  1.0393798285D+01 Coefficients=  3.9675535929D-01
     Exponent=  4.1606304559D+00 Coefficients=  2.3208624517D-01
 P 3 1.00
     Exponent=  1.5565737135D+01 Coefficients= -2.7129423974D-02
     Exponent=  2.1121544865D+00 Coefficients=  5.5109256629D-01
     Exponent=  8.4184709021D-01 Coefficients=  1.0090635806D+00
 P 1 1.00
     Exponent=  3.2297542652D-01 Coefficients=  1.0000000000D+00
 P 1 1.00
     Exponent=  8.9748000000D-02 Coefficients=  1.0000000000D+00
 D 4 1.00
     Exponent=  3.0989390993D+01 Coefficients=  1.1902837431D-02
     Exponent=  8.6905465069D+00 Coefficients=  6.7655856850D-02
     Exponent=  2.9520256337D+00 Coefficients=  2.1332539722D-01
     Exponent=  1.0761910745D+00 Coefficients=  3.8391075578D-01
 D 1 1.00
     Exponent=  3.8338915095D-01 Coefficients=  4.3354716259D-01
 D 1 1.00
     Exponent=  1.2534686113D-01 Coefficients=  2.4509263822D-01
 D 1 1.00
     Exponent=  4.1000000000D-02 Coefficients=  1.0000000000D+00
 F 1 1.00
     Exponent=  3.4500000000D-01 Coefficients=  1.0000000000D+00
 ****
 Ernie: Thresh=  0.10000D-02 Tol=  0.10000D-05 Strict=F.
 There are   934 symmetry adapted cartesian basis functions of A   symmetry.
 There are   875 symmetry adapted basis functions of A   symmetry.
   875 basis functions,  1564 primitive gaussians,   934 cartesian basis functions
   219 alpha electrons      219 beta electrons
       nuclear repulsion energy     10674.1005635430 Hartrees.
 IExCor= 7252 DFT=T Ex+Corr=MN15 ExCW=0 ScaHFX=  0.440000
 ScaDFX=  1.000000  1.000000  1.000000  1.000000 ScalE2=  1.000000  1.000000
 IRadAn=      5 IRanWt=     -1 IRanGd=            0 ICorTp=0 IEmpDi=  4
 NAtoms=   71 NActive=   71 NUniq=   71 SFac= 1.00D+00 NAtFMM=   60 NAOKFM=T Big=T
 Integral buffers will be    131072 words long.
 Raffenetti 2 integral format.
 Two-electron integral symmetry is turned on.
 ------------------------------------------------------------------------------
 Polarizable Continuum Model (PCM)
 =================================
 Model                : PCM.
 Atomic radii         : SMD-Coulomb.
 Polarization charges : Total charges.
 Charge compensation  : None.
 Solution method      : On-the-fly selection.
 Cavity type          : VdW (van der Waals Surface) (Alpha=1.000).
 Cavity algorithm     : GePol (No added spheres)
                        Default sphere list used, NSphG=   71.
                        Lebedev-Laikov grids with approx.  5.0 points / Ang**2.
                        Smoothing algorithm: York/Karplus (Gamma=1.0000).
                        Polarization charges: spherical gaussians, with
                                              point-specific exponents (IZeta= 3).
                        Self-potential: point-specific (ISelfS= 7).
                        Self-field    : sphere-specific E.n sum rule (ISelfD= 2).
 1st derivatives      : Analytical E(r).r(x)/FMM algorithm (CHGder, D1EAlg=3).
                        Cavity 1st derivative terms included.
 Solvent              : DiChloroEthane, Eps=  10.125000 Eps(inf)=   2.087447
 ------------------------------------------------------------------------------
 GePol: Number of generator spheres                  =      71
 GePol: Total number of spheres                      =      71
 GePol: Number of exposed spheres                    =      70 ( 98.59%)
 GePol: Number of points                             =    4900
 GePol: Average weight of points                     =       0.13
 GePol: Minimum weight of points                     =   0.25D-11
 GePol: Maximum weight of points                     =    0.21501
 GePol: Number of points with low weight             =     309
 GePol: Fraction of low-weight points (<1% of avg)   =       6.31%
 GePol: Cavity surface area                          =    626.841 Ang**2
 GePol: Cavity volume                                =    759.143 Ang**3
 ------------------------------------------------------------------------------
 Atomic radii for non-electrostatic terms: SMD-CDS.
 ------------------------------------------------------------------------------
 PCM non-electrostatic energy =         0.0059396978 Hartrees.
 Nuclear repulsion after PCM non-electrostatic terms =    10674.1065032408 Hartrees.
 Leave Link  301 at Thu Feb  6 20:56:34 2025, MaxMem= 82678120448 cpu:               5.2 elap:               0.3
 (Enter /sysapps/ubuntu-applications/gaussian-new/avx/g16/l302.exe)
 NPDir=0 NMtPBC=     1 NCelOv=     1 NCel=       1 NClECP=     1 NCelD=      1
         NCelK=      1 NCelE2=     1 NClLst=     1 CellRange=     0.0.
 One-electron integrals computed using PRISM.
 One-electron integral symmetry used in STVInt
 NBasis=   875 RedAO= T EigKep=  2.21D-04  NBF=   875
 NBsUse=   875 1.00D-06 EigRej= -1.00D+00 NBFU=   875
 Precomputing XC quadrature grid using
 IXCGrd= 4 IRadAn=           5 IRanWt=          -1 IRanGd=           0 AccXCQ= 0.00D+00.
 Generated NRdTot=       0 NPtTot=           0 NUsed=           0 NTot=          32
 NSgBfM=   886   882   884   886   886 MxSgAt=    71 MxSgA2=    71.
 Leave Link  302 at Thu Feb  6 20:56:39 2025, MaxMem= 82678120448 cpu:             117.0 elap:               5.1
 (Enter /sysapps/ubuntu-applications/gaussian-new/avx/g16/l303.exe)
 DipDrv:  MaxL=1.
 Leave Link  303 at Thu Feb  6 20:56:39 2025, MaxMem= 82678120448 cpu:               7.2 elap:               0.4
 (Enter /sysapps/ubuntu-applications/gaussian-new/avx/g16/l401.exe)
 ExpMin= 3.01D-02 ExpMax= 1.92D+05 ExpMxC= 1.85D+03 IAcc=3 IRadAn=         5 AccDes= 0.00D+00
 Harris functional with IExCor= 1009 and IRadAn=       5 diagonalized for initial guess.
 HarFok:  IExCor= 1009 AccDes= 0.00D+00 IRadAn=         5 IDoV= 1 UseB2=F ITyADJ=14
 ICtDFT=  3500011 ScaDFX=  1.000000  1.000000  1.000000  1.000000
 FoFCou: FMM=F IPFlag=           0 FMFlag=      100000 FMFlg1=        2001
         NFxFlg=           0 DoJE=T BraDBF=F KetDBF=T FulRan=T
         wScrn=  0.000000 ICntrl=       500 IOpCl=  0 I1Cent=   200000004 NGrid=           0
         NMat0=    1 NMatS0=      1 NMatT0=    0 NMatD0=    1 NMtDS0=    0 NMtDT0=    0
 Petite list used in FoFCou.
 Harris En= -4932.07808126525    
 JPrj=0 DoOrth=F DoCkMO=F.
 Leave Link  401 at Thu Feb  6 20:56:47 2025, MaxMem= 82678120448 cpu:             173.4 elap:               7.3
 (Enter /sysapps/ubuntu-applications/gaussian-new/avx/g16/l502.exe)
 Integral symmetry usage will be decided dynamically.
 Closed shell SCF:
 Using DIIS extrapolation, IDIIS=  1040.
 NGot= 82678120448 LenX= 82676343087 LenY= 82675469797
 Requested convergence on RMS density matrix=1.00D-08 within 500 cycles.
 Requested convergence on MAX density matrix=1.00D-06.
 Requested convergence on             energy=1.00D-06.
 No special actions if energy rises.
 Fock matrices will be formed incrementally for  20 cycles.

 Cycle   1  Pass 1  IDiag  1:
 FoFJK:  IHMeth= 1 ICntrl=       0 DoSepK=F KAlg= 0 I1Cent=           0 FoldK=F
 IRaf= 820000000 NMat=       1 IRICut=       1 DoRegI=T DoRafI=F ISym2E= 0 IDoP0=0 IntGTp=1.
 FoFCou: FMM=T IPFlag=           0 FMFlag=      100000 FMFlg1=        2001
         NFxFlg=           0 DoJE=F BraDBF=F KetDBF=F FulRan=T
         wScrn=  0.000000 ICntrl=         0 IOpCl=  0 I1Cent=           0 NGrid=           0
         NMat0=    1 NMatS0=      1 NMatT0=    0 NMatD0=    1 NMtDS0=    0 NMtDT0=    0
 Symmetry not used in FoFCou.
 FMM levels:  10  Number of levels for PrismC:   9
 Inv3:  Mode=1 IEnd=    72030000.
 Iteration    1 A*A^-1 deviation from unit magnitude is 8.44D-15 for   4892.
 Iteration    1 A*A^-1 deviation from orthogonality  is 5.02D-15 for   4892   3723.
 Iteration    1 A^-1*A deviation from unit magnitude is 8.22D-15 for   4892.
 Iteration    1 A^-1*A deviation from orthogonality  is 1.43D-13 for   4738   4712.
 E= -4930.46819748624    
 DIIS: error= 2.52D-02 at cycle   1 NSaved=   1.
 NSaved= 1 IEnMin= 1 EnMin= -4930.46819748624     IErMin= 1 ErrMin= 2.52D-02
 ErrMax= 2.52D-02  0.00D+00 EMaxC= 1.00D-01 BMatC= 1.93D+00 BMatP= 1.93D+00
 IDIUse=3 WtCom= 7.48D-01 WtEn= 2.52D-01
 Coeff-Com:  0.100D+01
 Coeff-En:   0.100D+01
 Coeff:      0.100D+01
 Gap=     0.296 Goal=   None    Shift=    0.000
 GapD=    0.296 DampG=1.000 DampE=0.250 DampFc=0.2500 IDamp=-1.
 Damping current iteration by 2.50D-01
 RMSDP=3.68D-03 MaxDP=5.20D-01              OVMax= 2.40D-01

 Cycle   2  Pass 1  IDiag  1:
 RMSU=  9.20D-04    CP:  9.99D-01
 E= -4930.98504735749     Delta-E=       -0.516849871245 Rises=F Damp=T
 DIIS: error= 1.10D-02 at cycle   2 NSaved=   2.
 NSaved= 2 IEnMin= 2 EnMin= -4930.98504735749     IErMin= 2 ErrMin= 1.10D-02
 ErrMax= 1.10D-02  0.00D+00 EMaxC= 1.00D-01 BMatC= 3.42D-01 BMatP= 1.93D+00
 IDIUse=3 WtCom= 8.90D-01 WtEn= 1.10D-01
 Coeff-Com: -0.578D+00 0.158D+01
 Coeff-En:   0.000D+00 0.100D+01
 Coeff:     -0.515D+00 0.151D+01
 Gap=     0.267 Goal=   None    Shift=    0.000
 RMSDP=1.01D-03 MaxDP=1.63D-01 DE=-5.17D-01 OVMax= 1.73D-01

 Cycle   3  Pass 1  IDiag  1:
 RMSU=  8.15D-04    CP:  9.95D-01  1.65D+00
 E= -4931.88769154216     Delta-E=       -0.902644184671 Rises=F Damp=F
 DIIS: error= 5.88D-03 at cycle   3 NSaved=   3.
 NSaved= 3 IEnMin= 3 EnMin= -4931.88769154216     IErMin= 3 ErrMin= 5.88D-03
 ErrMax= 5.88D-03  0.00D+00 EMaxC= 1.00D-01 BMatC= 4.91D-02 BMatP= 3.42D-01
 IDIUse=3 WtCom= 9.41D-01 WtEn= 5.88D-02
 Coeff-Com: -0.280D+00 0.652D+00 0.628D+00
 Coeff-En:   0.000D+00 0.000D+00 0.100D+01
 Coeff:     -0.264D+00 0.613D+00 0.650D+00
[...]
 Alpha  occ. eigenvalues --   -0.53497  -0.53006  -0.52532  -0.52459  -0.52277
 Alpha  occ. eigenvalues --   -0.52202  -0.51792  -0.51646  -0.51440  -0.51339
 Alpha  occ. eigenvalues --   -0.51022  -0.49824  -0.49700  -0.49068  -0.49029
 Alpha  occ. eigenvalues --   -0.48798  -0.48527  -0.48491  -0.47740  -0.47563
 Alpha  occ. eigenvalues --   -0.47315  -0.46521  -0.46028  -0.45914  -0.45402
 Alpha  occ. eigenvalues --   -0.45136  -0.44834  -0.44259  -0.44108  -0.43913
 Alpha  occ. eigenvalues --   -0.43552  -0.43137  -0.42832  -0.42554  -0.42511
 Alpha  occ. eigenvalues --   -0.41791  -0.41744  -0.41692  -0.41498  -0.41195
 Alpha  occ. eigenvalues --   -0.41007  -0.40819  -0.40523  -0.40172  -0.40041
 Alpha  occ. eigenvalues --   -0.39958  -0.39641  -0.39372  -0.39259  -0.39034
 Alpha  occ. eigenvalues --   -0.38806  -0.38378  -0.38222  -0.38083  -0.37605
 Alpha  occ. eigenvalues --   -0.37478  -0.37302  -0.36793  -0.36584  -0.35445
 Alpha  occ. eigenvalues --   -0.33811  -0.29545  -0.29478  -0.26486
 Alpha virt. eigenvalues --   -0.04141  -0.04047  -0.03438  -0.02486  -0.00832
 Alpha virt. eigenvalues --   -0.00729   0.00651   0.00720   0.00985   0.01433
 Alpha virt. eigenvalues --    0.01898   0.03650   0.05485   0.06872   0.07049
 Alpha virt. eigenvalues --    0.07335   0.08165   0.08307   0.08465   0.08626
 Alpha virt. eigenvalues --    0.08850   0.09106   0.09449   0.09681   0.09988
 Alpha virt. eigenvalues --    0.10292   0.10771   0.11172   0.11741   0.12092
 Alpha virt. eigenvalues --    0.12382   0.13019   0.13232   0.13591   0.14415
 Alpha virt. eigenvalues --    0.14584   0.14846   0.15337   0.15727   0.16556
 Alpha virt. eigenvalues --    0.16769   0.16846   0.17065   0.17324   0.17536
 Alpha virt. eigenvalues --    0.17968   0.18409   0.18996   0.19101   0.19597
 Alpha virt. eigenvalues --    0.19891   0.20019   0.20226   0.21074   0.21512
 Alpha virt. eigenvalues --    0.21984   0.22484   0.22748   0.23266   0.23735
 Alpha virt. eigenvalues --    0.23933   0.24422   0.24875   0.24989   0.25191
 Alpha virt. eigenvalues --    0.25796   0.25944   0.26354   0.26416   0.26988
 Alpha virt. eigenvalues --    0.27372   0.27448   0.28152   0.28391   0.28714
 Alpha virt. eigenvalues --    0.28997   0.29642   0.29842   0.30457   0.31167
 Alpha virt. eigenvalues --    0.31946   0.32472   0.32916   0.33568   0.34654
 Alpha virt. eigenvalues --    0.35397   0.36141   0.36744   0.37370   0.38606
 Alpha virt. eigenvalues --    0.39229   0.39809   0.39938   0.40686   0.41441
 Alpha virt. eigenvalues --    0.41860   0.42257   0.42705   0.43431   0.43802
 Alpha virt. eigenvalues --    0.44096   0.44364   0.44617   0.45023   0.45620
 Alpha virt. eigenvalues --    0.46075   0.46312   0.46777   0.46958   0.47604
 Alpha virt. eigenvalues --    0.47828   0.48054   0.48337   0.48661   0.48708
 Alpha virt. eigenvalues --    0.49217   0.49891   0.50130   0.50408   0.50893
 Alpha virt. eigenvalues --    0.51091   0.51357   0.51684   0.52284   0.52500
 Alpha virt. eigenvalues --    0.52929   0.53263   0.53801   0.54184   0.55132
 Alpha virt. eigenvalues --    0.55314   0.55459   0.56358   0.56533   0.56957
 Alpha virt. eigenvalues --    0.57430   0.57910   0.58632   0.58844   0.59150
 Alpha virt. eigenvalues --    0.59407   0.59825   0.60926   0.61079   0.61377
 Alpha virt. eigenvalues --    0.62242   0.62748   0.62989   0.63492   0.63990
 Alpha virt. eigenvalues --    0.64072   0.64352   0.64595   0.65414   0.66036
 Alpha virt. eigenvalues --    0.66270   0.66636   0.66955   0.67223   0.67284
 Alpha virt. eigenvalues --    0.67449   0.67863   0.68060   0.68522   0.68695
 Alpha virt. eigenvalues --    0.69181   0.69393   0.69539   0.69791   0.70126
 Alpha virt. eigenvalues --    0.70417   0.70560   0.70792   0.71103   0.71198
 Alpha virt. eigenvalues --    0.71445   0.72374   0.72432   0.72511   0.72919
 Alpha virt. eigenvalues --    0.73167   0.73508   0.74018   0.74236   0.74526
 Alpha virt. eigenvalues --    0.74909   0.75870   0.75937   0.76310   0.76632
 Alpha virt. eigenvalues --    0.76941   0.77383   0.77567   0.78554   0.78730
 Alpha virt. eigenvalues --    0.79235   0.79509   0.80459   0.81090   0.81802
 Alpha virt. eigenvalues --    0.82695   0.83216   0.84306   0.85016   0.85782
 Alpha virt. eigenvalues --    0.86391   0.86718   0.86875   0.87647   0.88158
 Alpha virt. eigenvalues --    0.88347   0.88895   0.89137   0.89873   0.90359
 Alpha virt. eigenvalues --    0.91060   0.91357   0.91972   0.92605   0.93338
 Alpha virt. eigenvalues --    0.93743   0.93998   0.94216   0.95102   0.95797
 Alpha virt. eigenvalues --    0.96133   0.96939   0.97071   0.97400   0.97703
 Alpha virt. eigenvalues --    0.98997   0.99235   0.99718   1.00284   1.01484
 Alpha virt. eigenvalues --    1.01661   1.02152   1.02965   1.03232   1.03884
 Alpha virt. eigenvalues --    1.03929   1.04282   1.05539   1.06377   1.07206
 Alpha virt. eigenvalues --    1.07274   1.07701   1.08122   1.08234   1.08706
 Alpha virt. eigenvalues --    1.09397   1.09777   1.10416   1.10799   1.11433
 Alpha virt. eigenvalues --    1.11766   1.12109   1.12457   1.13259   1.13706
 Alpha virt. eigenvalues --    1.13892   1.14444   1.14959   1.15642   1.15782
 Alpha virt. eigenvalues --    1.16172   1.17204   1.17685   1.17977   1.18745
 Alpha virt. eigenvalues --    1.18923   1.19081   1.19255   1.19550   1.20716
 Alpha virt. eigenvalues --    1.20985   1.21262   1.21759   1.22342   1.22531
 Alpha virt. eigenvalues --    1.22958   1.23619   1.24013   1.24080   1.24643
 Alpha virt. eigenvalues --    1.25179   1.25464   1.26066   1.26380   1.26899
 Alpha virt. eigenvalues --    1.27273   1.27895   1.28448   1.28761   1.29150
 Alpha virt. eigenvalues --    1.29764   1.29903   1.30325   1.31390   1.31968
 Alpha virt. eigenvalues --    1.32221   1.32432   1.32931   1.33203   1.33503
 Alpha virt. eigenvalues --    1.33846   1.34427   1.35048   1.35252   1.35954
 Alpha virt. eigenvalues --    1.36319   1.36456   1.37220   1.37864   1.38569
 Alpha virt. eigenvalues --    1.38770   1.39450   1.40176   1.40429   1.40779
 Alpha virt. eigenvalues --    1.41110   1.41636   1.41985   1.42914   1.43366
 Alpha virt. eigenvalues --    1.43567   1.43960   1.44532   1.45876   1.45921
 Alpha virt. eigenvalues --    1.46462   1.46694   1.47845   1.48121   1.49203
 Alpha virt. eigenvalues --    1.49435   1.50065   1.50759   1.51595   1.52550
 Alpha virt. eigenvalues --    1.52713   1.53006   1.53698   1.53851   1.54176
 Alpha virt. eigenvalues --    1.55097   1.55328   1.55850   1.56168   1.57377
 Alpha virt. eigenvalues --    1.58231   1.58738   1.58869   1.60219   1.60548
 Alpha virt. eigenvalues --    1.60895   1.61735   1.61933   1.62198   1.62310
 Alpha virt. eigenvalues --    1.62867   1.63925   1.64718   1.65636   1.65952
 Alpha virt. eigenvalues --    1.66752   1.66997   1.67795   1.68465   1.68730
 Alpha virt. eigenvalues --    1.68892   1.69273   1.69835   1.71304   1.71349
 Alpha virt. eigenvalues --    1.71879   1.72357   1.72972   1.73334   1.73583
 Alpha virt. eigenvalues --    1.74141   1.74459   1.74690   1.74999   1.75469
 Alpha virt. eigenvalues --    1.75637   1.75966   1.76685   1.77057   1.77659
 Alpha virt. eigenvalues --    1.77969   1.78530   1.78995   1.79929   1.80132
 Alpha virt. eigenvalues --    1.81397   1.81666   1.82418   1.82999   1.83409
 Alpha virt. eigenvalues --    1.83684   1.84196   1.85048   1.85110   1.85876
 Alpha virt. eigenvalues --    1.86047   1.86281   1.86563   1.86730   1.87168
 Alpha virt. eigenvalues --    1.87884   1.88408   1.89191   1.89764   1.89987
 Alpha virt. eigenvalues --    1.90594   1.91365   1.91565   1.91772   1.92349
 Alpha virt. eigenvalues --    1.92516   1.92945   1.93888   1.94200   1.94464
 Alpha virt. eigenvalues --    1.94862   1.95061   1.96017   1.96708   1.96900
 Alpha virt. eigenvalues --    1.97101   1.97355   1.97951   1.98412   1.98815
 Alpha virt. eigenvalues --    1.99167   1.99725   1.99980   2.00228   2.00469
 Alpha virt. eigenvalues --    2.01163   2.02634   2.02762   2.03663   2.03988
 Alpha virt. eigenvalues --    2.04349   2.05720   2.05819   2.07000   2.07307
 Alpha virt. eigenvalues --    2.07748   2.09279   2.09962   2.10387   2.11738
 Alpha virt. eigenvalues --    2.12407   2.13062   2.13490   2.13999   2.14138
 Alpha virt. eigenvalues --    2.14548   2.15586   2.16732   2.17737   2.19078
 Alpha virt. eigenvalues --    2.19627   2.21014   2.21637   2.22377   2.22754
 Alpha virt. eigenvalues --    2.23208   2.23951   2.24295   2.24720   2.25153
 Alpha virt. eigenvalues --    2.26014   2.26396   2.27149   2.28216   2.29464
 Alpha virt. eigenvalues --    2.30364   2.30869   2.31629   2.32311   2.33315
 Alpha virt. eigenvalues --    2.34308   2.35431   2.37490   2.37587   2.38328
 Alpha virt. eigenvalues --    2.40220   2.40946   2.41699   2.43068   2.43997
 Alpha virt. eigenvalues --    2.44857   2.46958   2.48394   2.51327   2.53449
 Alpha virt. eigenvalues --    2.53908   2.54547   2.55084   2.56488   2.56734
 Alpha virt. eigenvalues --    2.57499   2.57808   2.58518   2.58848   2.59504
 Alpha virt. eigenvalues --    2.59955   2.60907   2.61209   2.61442   2.61695
 Alpha virt. eigenvalues --    2.61995   2.62352   2.63882   2.64435   2.64707
 Alpha virt. eigenvalues --    2.64898   2.65539   2.66373   2.66881   2.67461
 Alpha virt. eigenvalues --    2.68192   2.68548   2.69126   2.69860   2.70200
 Alpha virt. eigenvalues --    2.70532   2.71216   2.71440   2.71992   2.72837
 Alpha virt. eigenvalues --    2.73795   2.74265   2.76027   2.76501   2.77555
 Alpha virt. eigenvalues --    2.78088   2.79086   2.79298   2.79376   2.79695
 Alpha virt. eigenvalues --    2.80106   2.80927   2.81594   2.81855   2.81982
 Alpha virt. eigenvalues --    2.82882   2.83110   2.84116   2.84156   2.84565
 Alpha virt. eigenvalues --    2.84997   2.86387   2.86473   2.87155   2.88999
 Alpha virt. eigenvalues --    2.89794   2.90619   2.91663   2.92110   2.92856
 Alpha virt. eigenvalues --    2.93276   2.93635   2.94084   2.94319   2.95279
 Alpha virt. eigenvalues --    2.95607   2.96159   2.96713   2.96976   2.97571
 Alpha virt. eigenvalues --    2.97883   2.97992   2.98277   2.98819   2.99739
 Alpha virt. eigenvalues --    3.00399   3.01568   3.01796   3.02055   3.02203
 Alpha virt. eigenvalues --    3.02414   3.02471   3.02511   3.02593   3.02651
 Alpha virt. eigenvalues --    3.02744   3.02784   3.02933   3.03214   3.03306
 Alpha virt. eigenvalues --    3.03438   3.03768   3.03861   3.04155   3.04857
 Alpha virt. eigenvalues --    3.05428   3.05855   3.06575   3.06899   3.07597
 Alpha virt. eigenvalues --    3.09082   3.12061   3.13120   3.14722   3.14862
 Alpha virt. eigenvalues --    3.15347   3.15609   3.15873   3.15997   3.16109
 Alpha virt. eigenvalues --    3.16622   3.16633   3.19960   3.20865   3.21825
 Alpha virt. eigenvalues --    3.22179   3.32447   3.33392   3.34488   3.35376
 Alpha virt. eigenvalues --    3.36341   3.36754   3.37335   3.37797   3.37907
 Alpha virt. eigenvalues --    3.38408   3.38496   3.39225   3.41280   3.44523
 Alpha virt. eigenvalues --    3.48182   3.51173   3.51324   3.51915   3.52473
 Alpha virt. eigenvalues --    3.52972   3.53160   3.54083   3.54527   3.57165
 Alpha virt. eigenvalues --    3.63057   3.63167   3.67231   3.67885   3.68458
 Alpha virt. eigenvalues --    3.80322   3.81077   3.82444   3.82573   3.82822
 Alpha virt. eigenvalues --    3.83658
          Condensed to atoms (all electrons):
 Mulliken charges:
               1
     1  C    0.016185
     2  C   -0.013045
     3  C   -0.001364
     4  C    0.012955
     5  C    0.002460
     6  C   -0.006997
     7  C   -0.282051
     8  C    0.276676
     9  C    0.327428
    10  H   -0.000489
    11  H    0.010701
    12  H    0.013875
    13  H    0.011715
    14  H    0.001320
    15  O   -0.259903
    16  O   -0.218305
    17  O   -0.225784
    18  O   -0.209329
    19  C    0.166172
    20  C    0.152084
    21  H    0.078044
    22  H    0.064844
    23  H    0.070420
    24  H    0.080018
    25  H    0.084254
    26  H    0.082774
    27  O   -0.429757
    28  O   -0.434706
    29  O   -0.445959
    30  S    0.893869
    31  S    0.864841
    32  S    0.869638
    33  O   -0.440207
    34  O   -0.391020
    35  O   -0.424590
    36  O   -0.378068
    37  O   -0.426415
    38  O   -0.395586
    39  C    0.447823
    40  C    0.453335
    41  C    0.429249
    42  F   -0.114904
    43  F   -0.112031
    44  F   -0.121045
    45  F   -0.102149
    46  F   -0.115170
    47  F   -0.115741
    48  F   -0.124432
    49  F   -0.108915
    50  F   -0.112901
    51  C    0.068360
    52  H    0.033494
    53  C   -0.133439
    54  C   -0.165478
    55  C   -0.182850
    56  C    0.043813
    57  C   -0.013878
    58  C    0.000811
    59  H    0.055908
    60  H    0.047626
    61  H    0.034835
    62  N    0.136738
    63  N    0.108197
    64  N   -0.180350
    65  N   -0.004477
    66  C    0.121394
    67  H    0.072567
    68  Sc   0.249379
    69  C    0.200057
    70  H    0.055199
    71  H    0.052277
 Sum of Mulliken charges =  -0.00000
 Mulliken charges with hydrogens summed into heavy atoms:
               1
     1  C    0.016185
     2  C   -0.013534
     3  C    0.009336
     4  C    0.026830
     5  C    0.014175
     6  C   -0.005678
     7  C   -0.282051
     8  C    0.276676
     9  C    0.327428
    15  O   -0.259903
    16  O   -0.218305
    17  O   -0.225784
    18  O   -0.209329
    19  C    0.379481
    20  C    0.399130
    27  O   -0.429757
    28  O   -0.434706
    29  O   -0.445959
    30  S    0.893869
    31  S    0.864841
    32  S    0.869638
    33  O   -0.440207
    34  O   -0.391020
    35  O   -0.424590
    36  O   -0.378068
    37  O   -0.426415
    38  O   -0.395586
    39  C    0.447823
    40  C    0.453335
    41  C    0.429249
    42  F   -0.114904
    43  F   -0.112031
    44  F   -0.121045
    45  F   -0.102149
    46  F   -0.115170
    47  F   -0.115741
    48  F   -0.124432
    49  F   -0.108915
    50  F   -0.112901
    51  C    0.101854
    53  C   -0.133439
    54  C   -0.165478
    55  C   -0.182850
    56  C    0.099720
    57  C    0.033749
    58  C    0.035646
    62  N    0.136738
    63  N    0.108197
    64  N   -0.180350
    65  N   -0.004477
    66  C    0.193961
    68  Sc   0.249379
    69  C    0.307533
 Electronic spatial extent (au):  <R**2>=          33184.9673
 Charge=              0.0000 electrons
 Dipole moment (field-independent basis, Debye):
    X=              6.1582    Y=              0.3088    Z=             -0.1191  Tot=              6.1671
 Quadrupole moment (field-independent basis, Debye-Ang):
   XX=           -369.0945   YY=           -342.2487   ZZ=           -320.9010
   XY=            -32.9461   XZ=            -11.9395   YZ=             -9.5739
 Traceless Quadrupole moment (field-independent basis, Debye-Ang):
   XX=            -25.0131   YY=              1.8327   ZZ=             23.1804
   XY=            -32.9461   XZ=            -11.9395   YZ=             -9.5739
 Octapole moment (field-independent basis, Debye-Ang**2):
  XXX=           -470.3279  YYY=             33.9040  ZZZ=            -98.9224  XYY=            -88.7127
  XXY=           -250.3522  XXZ=           -114.7212  XZZ=            -48.1317  YZZ=            -44.2011
  YYZ=             16.0069  XYZ=            -39.9329
 Hexadecapole moment (field-independent basis, Debye-Ang**3):
 XXXX=         -28857.6635 YYYY=          -8676.7168 ZZZZ=          -4901.5575 XXXY=          -2004.2309
 XXXZ=           -429.7322 YYYX=           -411.7116 YYYZ=            -71.1996 ZZZX=           -337.9064
 ZZZY=            -88.2675 XXYY=          -6368.7569 XXZZ=          -5853.9350 YYZZ=          -2189.4079
 XXYZ=            -15.3177 YYXZ=            -28.0470 ZZXY=           -123.6089
 N-N= 1.070177649885D+04 E-N=-3.302741848243D+04  KE= 4.900228258284D+03
 No NMR shielding tensors so no spin-rotation constants.
 Leave Link  601 at Fri Feb  7 00:48:27 2025, MaxMem= 82678120448 cpu:              36.2 elap:               1.7
 (Enter /sysapps/ubuntu-applications/gaussian-new/avx/g16/l9999.exe)
 1\1\GINC-ACIDSCN006\FOpt\RMN15\Gen\C23H18F9N4O13S3Sc1\SELHAJJ1\07-Feb-
 2025\0\\#P MN15/gen scf=(maxcyc=500) opt scrf=(smd,solvent=DiChloroEth
 ane)\\Opt\\0,1\C,-5.6268334339,0.801410675,0.1341607329\C,-5.423401597
 2,2.1540368344,0.4451550058\C,-6.5127053532,3.010254672,0.6222537722\C
 ,-7.8164214714,2.5283307756,0.4898725867\C,-8.0289973632,1.1829063168,
 0.179228657\C,-6.940941861,0.3280026421,0.0029876389\C,-2.0549812809,-
 0.4799793955,-0.9717817047\C,-2.2699337973,-1.5594705242,-2.0188859712
 \C,-0.8162911456,0.328908995,-1.3054394799\H,-4.4124619481,2.553936229
 7,0.5542674202\H,-6.3385321009,4.0611716168,0.8634659039\H,-8.66625747
 43,3.200902726,0.6262624103\H,-9.0451655842,0.7974910916,0.0704504641\
 H,-7.1056767537,-0.7251950978,-0.2423227837\O,0.2177311486,-0.19111221
 29,-1.7506751745\O,-1.5251057162,-1.8198274618,-2.9658850566\O,-3.3408
 338609,-2.2572055948,-1.8038767366\O,-0.8694125996,1.5857404705,-1.020
 124739\C,-3.5684013915,-3.4186968991,-2.622101039\C,0.2789422956,2.394
 2410539,-1.344732182\H,-4.4352006267,-3.9268820099,-2.1896489677\H,-2.
 6780487837,-4.0625062119,-2.5944534684\H,-3.7714863883,-3.1077441678,-
 3.6545620945\H,-0.0020923106,3.4240088968,-1.1071764537\H,0.504605344,
 2.2818494481,-2.4138588573\H,1.1374325886,2.073689436,-0.7409843393\O,
 2.6001118354,-1.1312229884,-3.4312414886\O,0.6398478817,-3.0314133296,
 -4.6198124029\O,-1.202974778,0.7097201667,-3.8793360238\S,-1.439152293
 6,0.3608443628,-5.3069194034\S,2.8693000178,0.1586978026,-4.1477289176
 \S,1.0023648521,-3.8422643636,-3.4051476128\O,-0.5611784237,-0.8291581
 958,-5.5714009136\O,-1.4318841215,1.4178917328,-6.2827151165\O,1.49819
 97941,0.7105453205,-4.3858243274\O,3.8838714969,1.0317190308,-3.627944
 8274\O,0.9283420288,-2.8661684506,-2.2831387483\O,0.345844134,-5.11396
 18294,-3.239902428\C,2.8213350715,-4.2152688243,-3.6303874821\C,3.3983
 849267,-0.4092418339,-5.8176449069\C,-3.1636823458,-0.3684432233,-5.35
 05287395\F,3.4823204851,-3.8203941581,-2.5626158246\F,3.2802083743,-3.
 5941249931,-4.6984816808\F,2.9635863488,-5.5168874457,-3.784438418\F,2
 .4561467155,-1.2070761386,-6.2912799417\F,4.5340429151,-1.0684214808,-
 5.7163115082\F,3.5468952901,0.6295979283,-6.6127345076\F,-3.7292866378
 ,-0.2456546529,-4.1573389739\F,-3.1027224829,-1.646413617,-5.667409912
 5\F,-3.8823219327,0.2790512354,-6.2410595134\C,-4.4824302547,-0.175594
 3035,-0.0425376574\H,-4.8649051056,-1.0504860883,-0.5867453492\C,-3.98
 281502,-0.7788686084,1.3118882128\C,-5.1024744456,-1.4389423157,2.0150
 526029\C,-3.4652439408,0.2964060229,2.1952900902\C,-0.7213010483,-2.31
 55295513,0.2604976781\C,-2.4958236614,-3.9256646469,0.6097858799\C,-1.
 1120743933,-3.6009387125,0.2938590996\H,0.3107586398,-2.0354562315,0.0
 467997072\H,-2.8571554023,-4.956470532,0.5853796794\H,-0.4008969901,-4
 .4082483587,0.1098235394\N,-6.0241090935,-1.8770109449,2.5598200769\N,
 -3.0406248241,1.1568751324,2.8423012585\N,-2.9175559084,-1.7408955046,
 1.0569818733\N,-3.3412643893,-3.0228160022,0.9655636429\C,-1.726607090
 1,-1.2138504704,0.4209223254\H,-1.3285878526,-0.4043133042,1.060555869
 2\Sc,0.3905622185,-1.1038090405,-3.6466994549\C,-3.2847443488,0.434817
 7768,-0.7758770519\H,-3.6134191975,0.8268264342,-1.7495209313\H,-2.926
 0579383,1.29587836,-0.1937053256\\Version=ES64L-G16RevA.03\State=1-A\H
 F=-4931.9396132\RMSD=7.537e-09\RMSF=1.232e-05\Dipole=-1.963251,0.36250
 19,1.3788704\Quadrupole=7.5133959,18.225462,-25.7388578,-2.7107344,21.
 3564768,7.9246249\PG=C01 [X(C23H18F9N4O13S3Sc1)]\\@


 YOU CAN LEAD A BOY TO COLLEGE....
 BUT YOU CANNOT MAKE HIM THINK....
           ELBERT HUBBARD
 Job cpu time:       3 days 16 hours 13 minutes 26.5 seconds.
 Elapsed time:       0 days  3 hours 51 minutes 40.5 seconds.
 File lengths (MBytes):  RWF=   1264 Int=      0 D2E=      0 Chk=     68 Scr=      8
 Normal termination of Gaussian 16 at Fri Feb  7 00:48:28 2025.
