 Entering Gaussian System, Link 0=/sysapps/ubuntu-applications/gaussian-new/avx/g16//g16
 Input=i2-keto.in
 Output=i2-keto.log
 Initial command:
 /sysapps/ubuntu-applications/gaussian-new/avx/g16/l1.exe "/data/temp-scratch/selhajj1/7635076/Gau-3308284.inp" -scrdir="/data/temp-scratch/selhajj1/7635076/"
 Entering Link 1 = /sysapps/ubuntu-applications/gaussian-new/avx/g16/l1.exe PID=   3308286.
  
 Copyright (c) 1988,1990,1992,1993,1995,1998,2003,2009,2016,
            Gaussian, Inc.  All Rights Reserved.
  
 This is part of the Gaussian(R) 16 program.  It is based on
 the Gaussian(R) 09 system (copyright 2009, Gaussian, Inc.),
 the Gaussian(R) 03 system (copyright 2003, Gaussian, Inc.),
 the Gaussian(R) 98 system (copyright 1998, Gaussian, Inc.),
 the Gaussian(R) 94 system (copyright 1995, Gaussian, Inc.),
 the Gaussian 92(TM) system (copyright 1992, Gaussian, Inc.),
 the Gaussian 90(TM) system (copyright 1990, Gaussian, Inc.),
 the Gaussian 88(TM) system (copyright 1988, Gaussian, Inc.),
 the Gaussian 86(TM) system (copyright 1986, Carnegie Mellon
 University), and the Gaussian 82(TM) system (copyright 1983,
 Carnegie Mellon University). Gaussian is a federally registered
 trademark of Gaussian, Inc.
  
 This software contains proprietary and confidential information,
 including trade secrets, belonging to Gaussian, Inc.
  
 This software is provided under written license and may be
 used, copied, transmitted, or stored only in accord with that
 written license.
  
 The following legend is applicable only to US Government
 contracts under FAR:
  
                    RESTRICTED RIGHTS LEGEND
  
 Use, reproduction and disclosure by the US Government is
 subject to restrictions as set forth in subparagraphs (a)
 and (c) of the Commercial Computer Software - Restricted
 Rights clause in FAR 52.227-19.
  
 Gaussian, Inc.
 340 Quinnipiac St., Bldg. 40, Wallingford CT 06492
  
  
 ---------------------------------------------------------------
 Warning -- This program may not be used in any manner that
 competes with the business of Gaussian, Inc. or will provide
 assistance to any competitor of Gaussian, Inc.  The licensee
 of this program is prohibited from giving any competitor of
 Gaussian, Inc. access to this program.  By using this program,
 the user acknowledges that Gaussian, Inc. is engaged in the
 business of creating and licensing software in the field of
 computational chemistry and represents and warrants to the
 licensee that it is not a competitor of Gaussian, Inc. and that
 it will not use this program in any manner prohibited above.
 ---------------------------------------------------------------
  

 Cite this work as:
 Gaussian 16, Revision A.03,
 M. J. Frisch, G. W. Trucks, H. B. Schlegel, G. E. Scuseria, 
 M. A. Robb, J. R. Cheeseman, G. Scalmani, V. Barone, 
 G. A. Petersson, H. Nakatsuji, X. Li, M. Caricato, A. V. Marenich, 
 J. Bloino, B. G. Janesko, R. Gomperts, B. Mennucci, H. P. Hratchian, 
 J. V. Ortiz, A. F. Izmaylov, J. L. Sonnenberg, D. Williams-Young, 
 F. Ding, F. Lipparini, F. Egidi, J. Goings, B. Peng, A. Petrone, 
 T. Henderson, D. Ranasinghe, V. G. Zakrzewski, J. Gao, N. Rega, 
 G. Zheng, W. Liang, M. Hada, M. Ehara, K. Toyota, R. Fukuda, 
 J. Hasegawa, M. Ishida, T. Nakajima, Y. Honda, O. Kitao, H. Nakai, 
 T. Vreven, K. Throssell, J. A. Montgomery, Jr., J. E. Peralta, 
 F. Ogliaro, M. J. Bearpark, J. J. Heyd, E. N. Brothers, K. N. Kudin, 
 V. N. Staroverov, T. A. Keith, R. Kobayashi, J. Normand, 
 K. Raghavachari, A. P. Rendell, J. C. Burant, S. S. Iyengar, 
 J. Tomasi, M. Cossi, J. M. Millam, M. Klene, C. Adamo, R. Cammi, 
 J. W. Ochterski, R. L. Martin, K. Morokuma, O. Farkas, 
 J. B. Foresman, and D. J. Fox, Gaussian, Inc., Wallingford CT, 2016.
 
 ******************************************
 Gaussian 16:  ES64L-G16RevA.03 25-Dec-2016
                 5-Mar-2025 
 ******************************************
 %chk=i2-keto.chk
 %mem=616Gb
 %nprocshared=24
 Will use up to   24 processors via shared memory.
 ------------------------------------------------------------------
 #P MN15/gen scf=(maxcyc=500) opt scrf=(smd,solvent=DiChloroEthane)
 ------------------------------------------------------------------
 1/18=20,19=15,26=3,38=1/1,3;
 2/9=110,12=2,17=6,18=5,40=1/2;
 3/5=7,11=2,25=1,30=1,70=32201,71=1,72=10,74=-73/1,2,3;
 4//1;
 5/5=2,7=500,38=5,53=10/2;
 6/7=2,8=2,9=2,10=2,28=1/1;
 7//1,2,3,16;
 1/18=20,19=15,26=3/3(2);
 2/9=110/2;
 99//99;
 2/9=110/2;
 3/5=7,6=1,11=2,25=1,30=1,70=32205,71=1,72=10,74=-73,82=7/1,2,3;
 4/5=5,16=3,69=1/1;
 5/5=2,7=500,38=5,53=10/2;
 7//1,2,3,16;
 1/18=20,19=15,26=3/3(-5);
 2/9=110/2;
 6/7=2,8=2,9=2,10=2,19=2,28=1/1;
 99/9=1/99;
 Leave Link    1 at Wed Mar  5 05:07:58 2025, MaxMem= 82678120448 cpu:               2.3 elap:               0.1
 (Enter /sysapps/ubuntu-applications/gaussian-new/avx/g16/l101.exe)
 ---
 Opt
 ---
 Symbolic Z-matrix:
 Charge =  0 Multiplicity = 1
 C                    -5.66199   0.44742  -0.1257 
 C                    -6.42062   0.32328  -1.29837 
 C                    -7.71893   0.83011  -1.36313 
 C                    -8.2751    1.46873  -0.25199 
 C                    -7.52647   1.59958   0.91966 
 C                    -6.2262    1.09406   0.98391 
 C                    -1.78025   0.55709   0.39152 
 C                    -1.15946   0.88914  -0.8373 
 C                    -1.00284  -0.00655   1.4189 
 H                    -5.98222  -0.17656  -2.16703 
 H                    -8.29598   0.72878  -2.28487 
 H                    -9.29078   1.86779  -0.30052 
 H                    -7.95361   2.10186   1.7904 
 H                    -5.65305   1.21171   1.90662 
 O                     0.23793  -0.26153   1.38775 
 O                     0.08003   0.90317  -1.08019 
 O                     3.03993  -1.24991   0.8805 
 O                     2.73554  -0.05571  -1.78376 
 O                     0.87793   2.39513   1.13339 
 S                     1.77644   3.26577   0.33392 
 S                     3.75107  -0.44818   1.92277 
 S                     2.06793  -1.35839  -2.09103 
 O                     2.59032   2.33504  -0.51318 
 O                     2.47933   4.3318    1.00316 
 O                     3.06713   0.87747   1.90342 
 O                     4.01079  -1.06946   3.1952 
 O                     1.1296   -1.6046   -0.96587 
 O                     1.5653   -1.54799  -3.43199 
 C                     3.41974  -2.63024  -1.87826 
 C                     5.38431  -0.10962   1.14834 
 C                     0.65347   4.10928  -0.90132 
 F                     3.00946  -3.56867  -1.04301 
 F                     4.51621  -2.06802  -1.4115 
 F                     3.67853  -3.17809  -3.05211 
 F                     5.1867    0.47661  -0.01921 
 F                     6.03038  -1.24704   0.97215 
 F                     6.08975   0.68524   1.93058 
 F                    -0.59823   3.71726  -0.72439 
 F                     1.03198   3.80949  -2.13063 
 F                     0.7229    5.41545  -0.72878 
 C                    -4.25039  -0.11148  -0.09555 
 H                    -3.93607  -0.29215  -1.13363 
 C                    -4.27144  -1.54375   0.55559 
 C                    -5.30146  -2.38128  -0.0944 
 C                    -4.56886  -1.43633   1.99434 
 C                    -1.13761  -3.58229   1.03349 
 C                    -1.47009  -2.8727   -1.22915 
 C                    -0.69162  -3.56234  -0.27111 
 H                    -0.60612  -4.1021    1.83065 
 H                    -1.17286  -2.82374  -2.27857 
 H                     0.23066  -4.05802  -0.57269 
 N                    -6.08911  -3.03995  -0.6266 
 N                    -4.81228  -1.31067   3.11801 
 N                    -2.96846  -2.26675   0.34645 
 N                    -2.58314  -2.25096  -0.91688 
 Sc                    1.70054   0.42139   0.12604 
 C                    -3.24923   0.84058   0.58051 
 H                    -3.47362   1.83184   0.15749 
 H                    -3.46608   0.90792   1.6567 
 C                    -2.32706  -2.90996   1.32582 
 H                    -2.7624   -2.8892    2.32625 
 C                    -2.03622   1.23932  -1.87295 
 H                    -2.58326   0.37428  -2.18496 
 H                    -2.71856   1.98659  -1.52525 
 H                    -1.47626   1.62447  -2.6994 
 C                    -1.70961  -0.36734   2.57399 
 H                    -2.73297  -0.07168   2.47289 
 H                    -1.65625  -1.42755   2.70821 
 H                    -1.27925   0.12174   3.4228 
 
 ITRead=  0  0  0  0  0  0  0  0  0  0  0  0  0  0  0  0  0  0  0  0
 ITRead=  0  0  0  0  0  0  0  0  0  0  0  0  0  0  0  0  0  0  0  0
 ITRead=  0  0  0  0  0  0  0  0  0  0  0  0  0  0  0  0  0  0  0  0
 ITRead=  0  0  0  0  0  0  0  0  0
 MicOpt= -1 -1 -1 -1 -1 -1 -1 -1 -1 -1 -1 -1 -1 -1 -1 -1 -1 -1 -1 -1
 MicOpt= -1 -1 -1 -1 -1 -1 -1 -1 -1 -1 -1 -1 -1 -1 -1 -1 -1 -1 -1 -1
 MicOpt= -1 -1 -1 -1 -1 -1 -1 -1 -1 -1 -1 -1 -1 -1 -1 -1 -1 -1 -1 -1
 MicOpt= -1 -1 -1 -1 -1 -1 -1 -1 -1
 NAtoms=     69 NQM=       69 NQMF=       0 NMMI=      0 NMMIF=      0
                NMic=       0 NMicF=      0.
                    Isotopes and Nuclear Properties:
 (Nuclear quadrupole moments (NQMom) in fm**2, nuclear magnetic moments (NMagM)
  in nuclear magnetons)

  Atom         1           2           3           4           5           6           7           8           9          10
 IAtWgt=          12          12          12          12          12          12          12          12          12           1
 AtmWgt=  12.0000000  12.0000000  12.0000000  12.0000000  12.0000000  12.0000000  12.0000000  12.0000000  12.0000000   1.0078250
 NucSpn=           0           0           0           0           0           0           0           0           0           1
 AtZEff=  -0.0000000  -0.0000000  -0.0000000  -0.0000000  -0.0000000  -0.0000000  -0.0000000  -0.0000000  -0.0000000  -0.0000000
 NQMom=    0.0000000   0.0000000   0.0000000   0.0000000   0.0000000   0.0000000   0.0000000   0.0000000   0.0000000   0.0000000
 NMagM=    0.0000000   0.0000000   0.0000000   0.0000000   0.0000000   0.0000000   0.0000000   0.0000000   0.0000000   2.7928460
 AtZNuc=   6.0000000   6.0000000   6.0000000   6.0000000   6.0000000   6.0000000   6.0000000   6.0000000   6.0000000   1.0000000

  Atom        11          12          13          14          15          16          17          18          19          20
 IAtWgt=           1           1           1           1          16          16          16          16          16          32
 AtmWgt=   1.0078250   1.0078250   1.0078250   1.0078250  15.9949146  15.9949146  15.9949146  15.9949146  15.9949146  31.9720718
 NucSpn=           1           1           1           1           0           0           0           0           0           0
 AtZEff=  -0.0000000  -0.0000000  -0.0000000  -0.0000000  -0.0000000  -0.0000000  -0.0000000  -0.0000000  -0.0000000  -0.0000000
 NQMom=    0.0000000   0.0000000   0.0000000   0.0000000   0.0000000   0.0000000   0.0000000   0.0000000   0.0000000   0.0000000
 NMagM=    2.7928460   2.7928460   2.7928460   2.7928460   0.0000000   0.0000000   0.0000000   0.0000000   0.0000000   0.0000000
 AtZNuc=   1.0000000   1.0000000   1.0000000   1.0000000   8.0000000   8.0000000   8.0000000   8.0000000   8.0000000  16.0000000

  Atom        21          22          23          24          25          26          27          28          29          30
 IAtWgt=          32          32          16          16          16          16          16          16          12          12
 AtmWgt=  31.9720718  31.9720718  15.9949146  15.9949146  15.9949146  15.9949146  15.9949146  15.9949146  12.0000000  12.0000000
 NucSpn=           0           0           0           0           0           0           0           0           0           0
 AtZEff=  -0.0000000  -0.0000000  -0.0000000  -0.0000000  -0.0000000  -0.0000000  -0.0000000  -0.0000000  -0.0000000  -0.0000000
 NQMom=    0.0000000   0.0000000   0.0000000   0.0000000   0.0000000   0.0000000   0.0000000   0.0000000   0.0000000   0.0000000
 NMagM=    0.0000000   0.0000000   0.0000000   0.0000000   0.0000000   0.0000000   0.0000000   0.0000000   0.0000000   0.0000000
 AtZNuc=  16.0000000  16.0000000   8.0000000   8.0000000   8.0000000   8.0000000   8.0000000   8.0000000   6.0000000   6.0000000

  Atom        31          32          33          34          35          36          37          38          39          40
 IAtWgt=          12          19          19          19          19          19          19          19          19          19
 AtmWgt=  12.0000000  18.9984032  18.9984032  18.9984032  18.9984032  18.9984032  18.9984032  18.9984032  18.9984032  18.9984032
 NucSpn=           0           1           1           1           1           1           1           1           1           1
 AtZEff=  -0.0000000  -0.0000000  -0.0000000  -0.0000000  -0.0000000  -0.0000000  -0.0000000  -0.0000000  -0.0000000  -0.0000000
 NQMom=    0.0000000   0.0000000   0.0000000   0.0000000   0.0000000   0.0000000   0.0000000   0.0000000   0.0000000   0.0000000
 NMagM=    0.0000000   2.6288670   2.6288670   2.6288670   2.6288670   2.6288670   2.6288670   2.6288670   2.6288670   2.6288670
 AtZNuc=   6.0000000   9.0000000   9.0000000   9.0000000   9.0000000   9.0000000   9.0000000   9.0000000   9.0000000   9.0000000

  Atom        41          42          43          44          45          46          47          48          49          50
 IAtWgt=          12           1          12          12          12          12          12          12           1           1
 AtmWgt=  12.0000000   1.0078250  12.0000000  12.0000000  12.0000000  12.0000000  12.0000000  12.0000000   1.0078250   1.0078250
 NucSpn=           0           1           0           0           0           0           0           0           1           1
 AtZEff=  -0.0000000  -0.0000000  -0.0000000  -0.0000000  -0.0000000  -0.0000000  -0.0000000  -0.0000000  -0.0000000  -0.0000000
 NQMom=    0.0000000   0.0000000   0.0000000   0.0000000   0.0000000   0.0000000   0.0000000   0.0000000   0.0000000   0.0000000
 NMagM=    0.0000000   2.7928460   0.0000000   0.0000000   0.0000000   0.0000000   0.0000000   0.0000000   2.7928460   2.7928460
 AtZNuc=   6.0000000   1.0000000   6.0000000   6.0000000   6.0000000   6.0000000   6.0000000   6.0000000   1.0000000   1.0000000

  Atom        51          52          53          54          55          56          57          58          59          60
 IAtWgt=           1          14          14          14          14          45          12           1           1          12
 AtmWgt=   1.0078250  14.0030740  14.0030740  14.0030740  14.0030740  44.9559136  12.0000000   1.0078250   1.0078250  12.0000000
 NucSpn=           1           2           2           2           2           7           0           1           1           0
 AtZEff=  -0.0000000  -0.0000000  -0.0000000  -0.0000000  -0.0000000  -0.0000000  -0.0000000  -0.0000000  -0.0000000  -0.0000000
 NQMom=    0.0000000   2.0440000   2.0440000   2.0440000   2.0440000 -22.0000000   0.0000000   0.0000000   0.0000000   0.0000000
 NMagM=    2.7928460   0.4037610   0.4037610   0.4037610   0.4037610   4.7564830   0.0000000   2.7928460   2.7928460   0.0000000
 AtZNuc=   1.0000000   7.0000000   7.0000000   7.0000000   7.0000000  21.0000000   6.0000000   1.0000000   1.0000000   6.0000000

  Atom        61          62          63          64          65          66          67          68          69
 IAtWgt=           1          12           1           1           1          12           1           1           1
 AtmWgt=   1.0078250  12.0000000   1.0078250   1.0078250   1.0078250  12.0000000   1.0078250   1.0078250   1.0078250
 NucSpn=           1           0           1           1           1           0           1           1           1
 AtZEff=  -0.0000000  -0.0000000  -0.0000000  -0.0000000  -0.0000000  -0.0000000  -0.0000000  -0.0000000  -0.0000000
 NQMom=    0.0000000   0.0000000   0.0000000   0.0000000   0.0000000   0.0000000   0.0000000   0.0000000   0.0000000
 NMagM=    2.7928460   0.0000000   2.7928460   2.7928460   2.7928460   0.0000000   2.7928460   2.7928460   2.7928460
 AtZNuc=   1.0000000   6.0000000   1.0000000   1.0000000   1.0000000   6.0000000   1.0000000   1.0000000   1.0000000
 Leave Link  101 at Wed Mar  5 05:07:58 2025, MaxMem= 82678120448 cpu:               9.0 elap:               0.4
 (Enter /sysapps/ubuntu-applications/gaussian-new/avx/g16/l103.exe)

 GradGradGradGradGradGradGradGradGradGradGradGradGradGradGradGradGradGrad
 Berny optimization.
 Initialization pass.
                           ----------------------------
                           !    Initial Parameters    !
                           ! (Angstroms and Degrees)  !
 --------------------------                            --------------------------
 ! Name  Definition              Value          Derivative Info.                !
 --------------------------------------------------------------------------------
 ! R1    R(1,2)                  1.4022         estimate D2E/DX2                !
 ! R2    R(1,6)                  1.4028         estimate D2E/DX2                !
 ! R3    R(1,41)                 1.5185         estimate D2E/DX2                !
 ! R4    R(2,3)                  1.3952         estimate D2E/DX2                !
 ! R5    R(2,10)                 1.0939         estimate D2E/DX2                !
 ! R6    R(3,4)                  1.3971         estimate D2E/DX2                !
 ! R7    R(3,11)                 1.0922         estimate D2E/DX2                !
 ! R8    R(4,5)                  1.3965         estimate D2E/DX2                !
 ! R9    R(4,12)                 1.0923         estimate D2E/DX2                !
 ! R10   R(5,6)                  1.3966         estimate D2E/DX2                !
 ! R11   R(5,13)                 1.0922         estimate D2E/DX2                !
 ! R12   R(6,14)                 1.0926         estimate D2E/DX2                !
 ! R13   R(7,8)                  1.4162         estimate D2E/DX2                !
 ! R14   R(7,9)                  1.4063         estimate D2E/DX2                !
 ! R15   R(7,57)                 1.508          estimate D2E/DX2                !
 ! R16   R(8,16)                 1.2631         estimate D2E/DX2                !
 ! R17   R(8,62)                 1.4014         estimate D2E/DX2                !
 ! R18   R(9,15)                 1.2671         estimate D2E/DX2                !
 ! R19   R(9,66)                 1.4014         estimate D2E/DX2                !
 ! R20   R(15,56)                2.0488         estimate D2E/DX2                !
 ! R21   R(16,56)                2.0768         estimate D2E/DX2                !
 ! R22   R(17,21)                1.4949         estimate D2E/DX2                !
 ! R23   R(17,56)                2.2708         estimate D2E/DX2                !
 ! R24   R(18,22)                1.4957         estimate D2E/DX2                !
 ! R25   R(18,56)                2.224          estimate D2E/DX2                !
 ! R26   R(19,20)                1.4848         estimate D2E/DX2                !
 ! R27   R(19,56)                2.3637         estimate D2E/DX2                !
 ! R28   R(20,23)                1.4987         estimate D2E/DX2                !
 ! R29   R(20,24)                1.4417         estimate D2E/DX2                !
 ! R30   R(20,31)                1.8704         estimate D2E/DX2                !
 ! R31   R(20,56)                2.853          estimate D2E/DX2                !
 ! R32   R(21,25)                1.4918         estimate D2E/DX2                !
 ! R33   R(21,26)                1.4396         estimate D2E/DX2                !
 ! R34   R(21,30)                1.839          estimate D2E/DX2                !
 ! R35   R(21,56)                2.8616         estimate D2E/DX2                !
 ! R36   R(22,27)                1.4856         estimate D2E/DX2                !
 ! R37   R(22,28)                1.4446         estimate D2E/DX2                !
 ! R38   R(22,29)                1.8682         estimate D2E/DX2                !
 ! R39   R(22,56)                2.8667         estimate D2E/DX2                !
 ! R40   R(23,56)                2.2051         estimate D2E/DX2                !
 ! R41   R(25,56)                2.2879         estimate D2E/DX2                !
 ! R42   R(27,56)                2.3713         estimate D2E/DX2                !
 ! R43   R(29,32)                1.3216         estimate D2E/DX2                !
 ! R44   R(29,33)                1.3177         estimate D2E/DX2                !
 ! R45   R(29,34)                1.321          estimate D2E/DX2                !
 ! R46   R(30,35)                1.3213         estimate D2E/DX2                !
 ! R47   R(30,36)                1.3199         estimate D2E/DX2                !
 ! R48   R(30,37)                1.3196         estimate D2E/DX2                !
 ! R49   R(31,38)                1.3235         estimate D2E/DX2                !
 ! R50   R(31,39)                1.3207         estimate D2E/DX2                !
 ! R51   R(31,40)                1.3193         estimate D2E/DX2                !
 ! R52   R(41,42)                1.0996         estimate D2E/DX2                !
 ! R53   R(41,43)                1.5735         estimate D2E/DX2                !
 ! R54   R(41,57)                1.5381         estimate D2E/DX2                !
 ! R55   R(43,44)                1.4781         estimate D2E/DX2                !
 ! R56   R(43,45)                1.4731         estimate D2E/DX2                !
 ! R57   R(43,54)                1.5047         estimate D2E/DX2                !
 ! R58   R(44,52)                1.1565         estimate D2E/DX2                !
 ! R59   R(45,53)                1.1566         estimate D2E/DX2                !
 ! R60   R(46,48)                1.3789         estimate D2E/DX2                !
 ! R61   R(46,49)                1.09           estimate D2E/DX2                !
 ! R62   R(46,60)                1.3972         estimate D2E/DX2                !
 ! R63   R(47,48)                1.414          estimate D2E/DX2                !
 ! R64   R(47,50)                1.0918         estimate D2E/DX2                !
 ! R65   R(47,55)                1.3126         estimate D2E/DX2                !
 ! R66   R(48,51)                1.0896         estimate D2E/DX2                !
 ! R67   R(54,55)                1.3209         estimate D2E/DX2                !
 ! R68   R(54,60)                1.3358         estimate D2E/DX2                !
 ! R69   R(57,58)                1.1009         estimate D2E/DX2                !
 ! R70   R(57,59)                1.0999         estimate D2E/DX2                !
 ! R71   R(60,61)                1.0912         estimate D2E/DX2                !
 ! R72   R(62,63)                1.07           estimate D2E/DX2                !
 ! R73   R(62,64)                1.07           estimate D2E/DX2                !
 ! R74   R(62,65)                1.07           estimate D2E/DX2                !
 ! R75   R(66,67)                1.07           estimate D2E/DX2                !
 ! R76   R(66,68)                1.07           estimate D2E/DX2                !
 ! R77   R(66,69)                1.07           estimate D2E/DX2                !
 ! A1    A(2,1,6)              118.9961         estimate D2E/DX2                !
 ! A2    A(2,1,41)             119.1417         estimate D2E/DX2                !
 ! A3    A(6,1,41)             121.8605         estimate D2E/DX2                !
 ! A4    A(1,2,3)              120.6715         estimate D2E/DX2                !
 ! A5    A(1,2,10)             119.1924         estimate D2E/DX2                !
 ! A6    A(3,2,10)             120.136          estimate D2E/DX2                !
 ! A7    A(2,3,4)              119.9721         estimate D2E/DX2                !
 ! A8    A(2,3,11)             119.8088         estimate D2E/DX2                !
 ! A9    A(4,3,11)             120.2189         estimate D2E/DX2                !
 ! A10   A(3,4,5)              119.7807         estimate D2E/DX2                !
 ! A11   A(3,4,12)             120.1204         estimate D2E/DX2                !
 ! A12   A(5,4,12)             120.0984         estimate D2E/DX2                !
 ! A13   A(4,5,6)              120.2508         estimate D2E/DX2                !
 ! A14   A(4,5,13)             120.1513         estimate D2E/DX2                !
 ! A15   A(6,5,13)             119.5975         estimate D2E/DX2                !
 ! A16   A(1,6,5)              120.3282         estimate D2E/DX2                !
 ! A17   A(1,6,14)             120.4431         estimate D2E/DX2                !
 ! A18   A(5,6,14)             119.2283         estimate D2E/DX2                !
 ! A19   A(8,7,9)              119.0488         estimate D2E/DX2                !
 ! A20   A(8,7,57)             119.4513         estimate D2E/DX2                !
 ! A21   A(9,7,57)             121.4876         estimate D2E/DX2                !
 ! A22   A(7,8,16)             126.8411         estimate D2E/DX2                !
 ! A23   A(7,8,62)             115.1868         estimate D2E/DX2                !
 ! A24   A(16,8,62)            117.9717         estimate D2E/DX2                !
 ! A25   A(7,9,15)             127.1597         estimate D2E/DX2                !
 ! A26   A(7,9,66)             115.249          estimate D2E/DX2                !
 ! A27   A(15,9,66)            117.5364         estimate D2E/DX2                !
 ! A28   A(9,15,56)            130.3255         estimate D2E/DX2                !
 ! A29   A(8,16,56)            130.6482         estimate D2E/DX2                !
 ! A30   A(19,20,23)           105.5936         estimate D2E/DX2                !
 ! A31   A(19,20,24)           118.6004         estimate D2E/DX2                !
 ! A32   A(19,20,31)           104.8754         estimate D2E/DX2                !
 ! A33   A(23,20,24)           117.1821         estimate D2E/DX2                !
 ! A34   A(23,20,31)           103.4636         estimate D2E/DX2                !
 ! A35   A(24,20,31)           105.4159         estimate D2E/DX2                !
 ! A36   A(24,20,56)           141.6301         estimate D2E/DX2                !
 ! A37   A(31,20,56)           112.6766         estimate D2E/DX2                !
 ! A38   A(17,21,25)           104.4443         estimate D2E/DX2                !
 ! A39   A(17,21,26)           118.0738         estimate D2E/DX2                !
 ! A40   A(17,21,30)           103.1562         estimate D2E/DX2                !
 ! A41   A(25,21,26)           118.5327         estimate D2E/DX2                !
 ! A42   A(25,21,30)           103.7754         estimate D2E/DX2                !
 ! A43   A(26,21,30)           106.9438         estimate D2E/DX2                !
 ! A44   A(26,21,56)           144.6225         estimate D2E/DX2                !
 ! A45   A(30,21,56)           108.4238         estimate D2E/DX2                !
 ! A46   A(18,22,27)           105.7047         estimate D2E/DX2                !
 ! A47   A(18,22,28)           117.408          estimate D2E/DX2                !
 ! A48   A(18,22,29)           104.274          estimate D2E/DX2                !
 ! A49   A(27,22,28)           117.4857         estimate D2E/DX2                !
 ! A50   A(27,22,29)           104.9478         estimate D2E/DX2                !
 ! A51   A(28,22,29)           105.5532         estimate D2E/DX2                !
 ! A52   A(28,22,56)           139.0092         estimate D2E/DX2                !
 ! A53   A(29,22,56)           115.2971         estimate D2E/DX2                !
 ! A54   A(22,29,32)           109.3142         estimate D2E/DX2                !
 ! A55   A(22,29,33)           110.6087         estimate D2E/DX2                !
 ! A56   A(22,29,34)           108.8376         estimate D2E/DX2                !
 ! A57   A(32,29,33)           109.7205         estimate D2E/DX2                !
 ! A58   A(32,29,34)           109.1436         estimate D2E/DX2                !
 ! A59   A(33,29,34)           109.1905         estimate D2E/DX2                !
 ! A60   A(21,30,35)           108.7213         estimate D2E/DX2                !
 ! A61   A(21,30,36)           109.4076         estimate D2E/DX2                !
 ! A62   A(21,30,37)           109.6358         estimate D2E/DX2                !
 ! A63   A(35,30,36)           109.7298         estimate D2E/DX2                !
 ! A64   A(35,30,37)           109.664          estimate D2E/DX2                !
 ! A65   A(36,30,37)           109.6652         estimate D2E/DX2                !
 ! A66   A(20,31,38)           110.2392         estimate D2E/DX2                !
 ! A67   A(20,31,39)           109.8935         estimate D2E/DX2                !
 ! A68   A(20,31,40)           109.1785         estimate D2E/DX2                !
 ! A69   A(38,31,39)           109.1614         estimate D2E/DX2                !
 ! A70   A(38,31,40)           108.9971         estimate D2E/DX2                !
 ! A71   A(39,31,40)           109.3515         estimate D2E/DX2                !
 ! A72   A(1,41,42)            107.9061         estimate D2E/DX2                !
 ! A73   A(1,41,43)            109.3176         estimate D2E/DX2                !
 ! A74   A(1,41,57)            112.7047         estimate D2E/DX2                !
 ! A75   A(42,41,43)           104.178          estimate D2E/DX2                !
 ! A76   A(42,41,57)           109.3054         estimate D2E/DX2                !
 ! A77   A(43,41,57)           112.9703         estimate D2E/DX2                !
 ! A78   A(41,43,44)           110.0671         estimate D2E/DX2                !
 ! A79   A(41,43,45)           109.9072         estimate D2E/DX2                !
 ! A80   A(41,43,54)           111.6084         estimate D2E/DX2                !
 ! A81   A(44,43,45)           109.2754         estimate D2E/DX2                !
 ! A82   A(44,43,54)           105.6668         estimate D2E/DX2                !
 ! A83   A(45,43,54)           110.2192         estimate D2E/DX2                !
 ! A84   A(48,46,49)           122.7597         estimate D2E/DX2                !
 ! A85   A(48,46,60)           117.7964         estimate D2E/DX2                !
 ! A86   A(49,46,60)           119.4425         estimate D2E/DX2                !
 ! A87   A(48,47,50)           121.5484         estimate D2E/DX2                !
 ! A88   A(48,47,55)           122.4565         estimate D2E/DX2                !
 ! A89   A(50,47,55)           115.9945         estimate D2E/DX2                !
 ! A90   A(46,48,47)           118.0357         estimate D2E/DX2                !
 ! A91   A(46,48,51)           121.9422         estimate D2E/DX2                !
 ! A92   A(47,48,51)           120.0221         estimate D2E/DX2                !
 ! A93   A(43,54,55)           112.3206         estimate D2E/DX2                !
 ! A94   A(43,54,60)           123.0419         estimate D2E/DX2                !
 ! A95   A(55,54,60)           124.5363         estimate D2E/DX2                !
 ! A96   A(47,55,54)           117.985          estimate D2E/DX2                !
 ! A97   A(15,56,16)            82.9906         estimate D2E/DX2                !
 ! A98   A(15,56,17)            88.3463         estimate D2E/DX2                !
 ! A99   A(15,56,18)           142.1438         estimate D2E/DX2                !
 ! A100  A(15,56,19)            76.552          estimate D2E/DX2                !
 ! A101  A(15,56,20)           107.8451         estimate D2E/DX2                !
 ! A102  A(15,56,21)            91.3519         estimate D2E/DX2                !
 ! A103  A(15,56,22)           111.1508         estimate D2E/DX2                !
 ! A104  A(15,56,23)           139.1006         estimate D2E/DX2                !
 ! A105  A(15,56,25)            90.8276         estimate D2E/DX2                !
 ! A106  A(15,56,27)            80.0317         estimate D2E/DX2                !
 ! A107  A(16,56,17)           145.4825         estimate D2E/DX2                !
 ! A108  A(16,56,18)            85.0744         estimate D2E/DX2                !
 ! A109  A(16,56,19)            77.4238         estimate D2E/DX2                !
 ! A110  A(16,56,20)            80.3166         estimate D2E/DX2                !
 ! A111  A(16,56,22)            78.1608         estimate D2E/DX2                !
 ! A112  A(16,56,23)            86.8566         estimate D2E/DX2                !
 ! A113  A(16,56,25)           150.5778         estimate D2E/DX2                !
 ! A114  A(16,56,27)            75.1007         estimate D2E/DX2                !
 ! A115  A(17,56,18)            81.5423         estimate D2E/DX2                !
 ! A116  A(17,56,19)           132.7078         estimate D2E/DX2                !
 ! A117  A(17,56,20)           133.9385         estimate D2E/DX2                !
 ! A118  A(17,56,22)            74.0033         estimate D2E/DX2                !
 ! A119  A(17,56,23)           119.8044         estimate D2E/DX2                !
 ! A120  A(17,56,25)            62.3738         estimate D2E/DX2                !
 ! A121  A(17,56,27)            70.4989         estimate D2E/DX2                !
 ! A122  A(18,56,19)           134.9957         estimate D2E/DX2                !
 ! A123  A(18,56,20)           105.3113         estimate D2E/DX2                !
 ! A124  A(18,56,21)            98.0772         estimate D2E/DX2                !
 ! A125  A(18,56,23)            75.4902         estimate D2E/DX2                !
 ! A126  A(18,56,25)           115.5876         estimate D2E/DX2                !
 ! A127  A(18,56,27)            62.1825         estimate D2E/DX2                !
 ! A128  A(19,56,21)           103.623          estimate D2E/DX2                !
 ! A129  A(19,56,22)           153.2038         estimate D2E/DX2                !
 ! A130  A(19,56,23)            62.5682         estimate D2E/DX2                !
 ! A131  A(19,56,25)            73.1628         estimate D2E/DX2                !
 ! A132  A(19,56,27)           145.6782         estimate D2E/DX2                !
 ! A133  A(20,56,21)           103.7769         estimate D2E/DX2                !
 ! A134  A(20,56,22)           132.2151         estimate D2E/DX2                !
 ! A135  A(20,56,25)            74.2623         estimate D2E/DX2                !
 ! A136  A(20,56,27)           153.0973         estimate D2E/DX2                !
 ! A137  A(21,56,22)           101.8351         estimate D2E/DX2                !
 ! A138  A(21,56,23)            99.0085         estimate D2E/DX2                !
 ! A139  A(21,56,27)           101.6553         estimate D2E/DX2                !
 ! A140  A(22,56,23)           105.2414         estimate D2E/DX2                !
 ! A141  A(22,56,25)           130.3922         estimate D2E/DX2                !
 ! A142  A(23,56,25)            79.1163         estimate D2E/DX2                !
 ! A143  A(23,56,27)           134.8413         estimate D2E/DX2                !
 ! A144  A(25,56,27)           132.2102         estimate D2E/DX2                !
 ! A145  A(7,57,41)            117.556          estimate D2E/DX2                !
 ! A146  A(7,57,58)            108.6439         estimate D2E/DX2                !
 ! A147  A(7,57,59)            109.0386         estimate D2E/DX2                !
 ! A148  A(41,57,58)           104.8197         estimate D2E/DX2                !
 ! A149  A(41,57,59)           109.8541         estimate D2E/DX2                !
 ! A150  A(58,57,59)           106.3004         estimate D2E/DX2                !
 ! A151  A(46,60,54)           119.1483         estimate D2E/DX2                !
 ! A152  A(46,60,61)           122.7223         estimate D2E/DX2                !
 ! A153  A(54,60,61)           118.129          estimate D2E/DX2                !
 ! A154  A(8,62,63)            109.4712         estimate D2E/DX2                !
 ! A155  A(8,62,64)            109.4712         estimate D2E/DX2                !
 ! A156  A(8,62,65)            109.4712         estimate D2E/DX2                !
 ! A157  A(63,62,64)           109.4713         estimate D2E/DX2                !
 ! A158  A(63,62,65)           109.4712         estimate D2E/DX2                !
 ! A159  A(64,62,65)           109.4712         estimate D2E/DX2                !
 ! A160  A(9,66,67)            109.4712         estimate D2E/DX2                !
 ! A161  A(9,66,68)            109.4712         estimate D2E/DX2                !
 ! A162  A(9,66,69)            109.4712         estimate D2E/DX2                !
 ! A163  A(67,66,68)           109.4713         estimate D2E/DX2                !
 ! A164  A(67,66,69)           109.4712         estimate D2E/DX2                !
 ! A165  A(68,66,69)           109.4712         estimate D2E/DX2                !
 ! A166  L(43,44,52,2,-1)      180.0173         estimate D2E/DX2                !
 ! A167  L(43,45,53,4,-1)      178.3434         estimate D2E/DX2                !
 ! A168  L(16,56,21,15,-1)     174.3425         estimate D2E/DX2                !
 ! A169  L(43,44,52,2,-2)      178.507          estimate D2E/DX2                !
 ! A170  L(43,45,53,4,-2)      181.3657         estimate D2E/DX2                !
 ! A171  L(16,56,21,15,-2)     177.6269         estimate D2E/DX2                !
 ! D1    D(6,1,2,3)             -0.2042         estimate D2E/DX2                !
 ! D2    D(6,1,2,10)           179.7367         estimate D2E/DX2                !
 ! D3    D(41,1,2,3)          -179.7324         estimate D2E/DX2                !
 ! D4    D(41,1,2,10)            0.2085         estimate D2E/DX2                !
 ! D5    D(2,1,6,5)              0.2996         estimate D2E/DX2                !
 ! D6    D(2,1,6,14)          -179.4607         estimate D2E/DX2                !
 ! D7    D(41,1,6,5)           179.8145         estimate D2E/DX2                !
 ! D8    D(41,1,6,14)            0.0541         estimate D2E/DX2                !
 ! D9    D(2,1,41,42)           15.9374         estimate D2E/DX2                !
 ! D10   D(2,1,41,43)          -96.7698         estimate D2E/DX2                !
 ! D11   D(2,1,41,57)          136.7217         estimate D2E/DX2                !
 ! D12   D(6,1,41,42)         -163.5767         estimate D2E/DX2                !
 ! D13   D(6,1,41,43)           83.7161         estimate D2E/DX2                !
 ! D14   D(6,1,41,57)          -42.7924         estimate D2E/DX2                !
 ! D15   D(1,2,3,4)             -0.0127         estimate D2E/DX2                !
 ! D16   D(1,2,3,11)           179.782          estimate D2E/DX2                !
 ! D17   D(10,2,3,4)          -179.953          estimate D2E/DX2                !
 ! D18   D(10,2,3,11)           -0.1583         estimate D2E/DX2                !
 ! D19   D(2,3,4,5)              0.1364         estimate D2E/DX2                !
 ! D20   D(2,3,4,12)           179.906          estimate D2E/DX2                !
 ! D21   D(11,3,4,5)          -179.6574         estimate D2E/DX2                !
 ! D22   D(11,3,4,12)            0.1122         estimate D2E/DX2                !
 ! D23   D(3,4,5,6)             -0.0407         estimate D2E/DX2                !
 ! D24   D(3,4,5,13)           179.715          estimate D2E/DX2                !
 ! D25   D(12,4,5,6)          -179.8104         estimate D2E/DX2                !
 ! D26   D(12,4,5,13)           -0.0546         estimate D2E/DX2                !
 ! D27   D(4,5,6,1)             -0.1795         estimate D2E/DX2                !
 ! D28   D(4,5,6,14)           179.5837         estimate D2E/DX2                !
 ! D29   D(13,5,6,1)          -179.9367         estimate D2E/DX2                !
 ! D30   D(13,5,6,14)           -0.1735         estimate D2E/DX2                !
 ! D31   D(9,7,8,16)           -10.1547         estimate D2E/DX2                !
 ! D32   D(9,7,8,62)           170.0895         estimate D2E/DX2                !
 ! D33   D(57,7,8,16)          168.5857         estimate D2E/DX2                !
 ! D34   D(57,7,8,62)          -11.17           estimate D2E/DX2                !
 ! D35   D(8,7,9,15)             0.3566         estimate D2E/DX2                !
 ! D36   D(8,7,9,66)          -176.8612         estimate D2E/DX2                !
 ! D37   D(57,7,9,15)         -178.3572         estimate D2E/DX2                !
 ! D38   D(57,7,9,66)            4.425          estimate D2E/DX2                !
 ! D39   D(8,7,57,41)           76.6397         estimate D2E/DX2                !
 ! D40   D(8,7,57,58)          -42.0809         estimate D2E/DX2                !
 ! D41   D(8,7,57,59)         -157.5348         estimate D2E/DX2                !
 ! D42   D(9,7,57,41)         -104.6515         estimate D2E/DX2                !
 ! D43   D(9,7,57,58)          136.6279         estimate D2E/DX2                !
 ! D44   D(9,7,57,59)           21.1739         estimate D2E/DX2                !
 ! D45   D(7,8,16,56)            1.8405         estimate D2E/DX2                !
 ! D46   D(62,8,16,56)        -178.4098         estimate D2E/DX2                !
 ! D47   D(7,8,62,63)          -69.2331         estimate D2E/DX2                !
 ! D48   D(7,8,62,64)           50.7669         estimate D2E/DX2                !
 ! D49   D(7,8,62,65)          170.7669         estimate D2E/DX2                !
 ! D50   D(16,8,62,63)         110.9882         estimate D2E/DX2                !
 ! D51   D(16,8,62,64)        -129.0118         estimate D2E/DX2                !
 ! D52   D(16,8,62,65)          -9.0118         estimate D2E/DX2                !
 ! D53   D(7,9,15,56)           17.4095         estimate D2E/DX2                !
 ! D54   D(66,9,15,56)        -165.4284         estimate D2E/DX2                !
 ! D55   D(7,9,66,67)           -3.974          estimate D2E/DX2                !
 ! D56   D(7,9,66,68)          116.026          estimate D2E/DX2                !
 ! D57   D(7,9,66,69)         -123.974          estimate D2E/DX2                !
 ! D58   D(15,9,66,67)         178.5264         estimate D2E/DX2                !
 ! D59   D(15,9,66,68)         -61.4736         estimate D2E/DX2                !
 ! D60   D(15,9,66,69)          58.5264         estimate D2E/DX2                !
 ! D61   D(9,15,56,16)         -18.515          estimate D2E/DX2                !
 ! D62   D(9,15,56,17)        -165.0324         estimate D2E/DX2                !
 ! D63   D(9,15,56,18)         -91.1082         estimate D2E/DX2                !
 ! D64   D(9,15,56,19)          60.1724         estimate D2E/DX2                !
 ! D65   D(9,15,56,20)          58.9158         estimate D2E/DX2                !
 ! D66   D(9,15,56,21)         163.8581         estimate D2E/DX2                !
 ! D67   D(9,15,56,22)         -92.8977         estimate D2E/DX2                !
 ! D68   D(9,15,56,23)          58.4042         estimate D2E/DX2                !
 ! D69   D(9,15,56,25)         132.6364         estimate D2E/DX2                !
 ! D70   D(9,15,56,27)         -94.5447         estimate D2E/DX2                !
 ! D71   D(8,16,56,15)           9.3006         estimate D2E/DX2                !
 ! D72   D(8,16,56,17)          85.9984         estimate D2E/DX2                !
 ! D73   D(8,16,56,18)         153.3032         estimate D2E/DX2                !
 ! D74   D(8,16,56,19)         -68.4219         estimate D2E/DX2                !
 ! D75   D(8,16,56,20)        -100.2229         estimate D2E/DX2                !
 ! D76   D(8,16,56,22)         122.7049         estimate D2E/DX2                !
 ! D77   D(8,16,56,23)        -131.004          estimate D2E/DX2                !
 ! D78   D(8,16,56,25)         -69.841          estimate D2E/DX2                !
 ! D79   D(8,16,56,27)          90.8034         estimate D2E/DX2                !
 ! D80   D(19,20,31,38)          0.3795         estimate D2E/DX2                !
 ! D81   D(19,20,31,39)       -119.9818         estimate D2E/DX2                !
 ! D82   D(19,20,31,40)        120.0869         estimate D2E/DX2                !
 ! D83   D(23,20,31,38)        110.8414         estimate D2E/DX2                !
 ! D84   D(23,20,31,39)         -9.52           estimate D2E/DX2                !
 ! D85   D(23,20,31,40)       -129.4512         estimate D2E/DX2                !
 ! D86   D(24,20,31,38)       -125.5666         estimate D2E/DX2                !
 ! D87   D(24,20,31,39)        114.072          estimate D2E/DX2                !
 ! D88   D(24,20,31,40)         -5.8593         estimate D2E/DX2                !
 ! D89   D(56,20,31,38)         59.1382         estimate D2E/DX2                !
 ! D90   D(56,20,31,39)        -61.2232         estimate D2E/DX2                !
 ! D91   D(56,20,31,40)        178.8456         estimate D2E/DX2                !
 ! D92   D(24,20,56,15)         96.6482         estimate D2E/DX2                !
 ! D93   D(24,20,56,16)        175.9879         estimate D2E/DX2                !
 ! D94   D(24,20,56,17)         -8.9041         estimate D2E/DX2                !
 ! D95   D(24,20,56,18)       -101.8878         estimate D2E/DX2                !
 ! D96   D(24,20,56,21)          0.6523         estimate D2E/DX2                !
 ! D97   D(24,20,56,22)       -119.8499         estimate D2E/DX2                !
 ! D98   D(24,20,56,25)         10.9468         estimate D2E/DX2                !
 ! D99   D(24,20,56,27)       -159.9025         estimate D2E/DX2                !
 ! D100  D(31,20,56,15)        -90.6702         estimate D2E/DX2                !
 ! D101  D(31,20,56,16)        -11.3305         estimate D2E/DX2                !
 ! D102  D(31,20,56,17)        163.7774         estimate D2E/DX2                !
 ! D103  D(31,20,56,18)         70.7937         estimate D2E/DX2                !
 ! D104  D(31,20,56,21)        173.3339         estimate D2E/DX2                !
 ! D105  D(31,20,56,22)         52.8316         estimate D2E/DX2                !
 ! D106  D(31,20,56,25)       -176.3716         estimate D2E/DX2                !
 ! D107  D(31,20,56,27)         12.7791         estimate D2E/DX2                !
 ! D108  D(17,21,30,35)         55.503          estimate D2E/DX2                !
 ! D109  D(17,21,30,36)        -64.3192         estimate D2E/DX2                !
 ! D110  D(17,21,30,37)        175.3809         estimate D2E/DX2                !
 ! D111  D(25,21,30,35)        -53.2237         estimate D2E/DX2                !
 ! D112  D(25,21,30,36)       -173.046          estimate D2E/DX2                !
 ! D113  D(25,21,30,37)         66.6542         estimate D2E/DX2                !
 ! D114  D(26,21,30,35)       -179.2968         estimate D2E/DX2                !
 ! D115  D(26,21,30,36)         60.881          estimate D2E/DX2                !
 ! D116  D(26,21,30,37)        -59.4189         estimate D2E/DX2                !
 ! D117  D(56,21,30,35)          1.556          estimate D2E/DX2                !
 ! D118  D(56,21,30,36)       -118.2662         estimate D2E/DX2                !
 ! D119  D(56,21,30,37)        121.4339         estimate D2E/DX2                !
 ! D120  D(26,21,56,15)         -1.4827         estimate D2E/DX2                !
 ! D121  D(26,21,56,18)       -144.7118         estimate D2E/DX2                !
 ! D122  D(26,21,56,19)         75.0057         estimate D2E/DX2                !
 ! D123  D(26,21,56,20)        107.2647         estimate D2E/DX2                !
 ! D124  D(26,21,56,22)       -113.4272         estimate D2E/DX2                !
 ! D125  D(26,21,56,23)        138.8043         estimate D2E/DX2                !
 ! D126  D(26,21,56,27)        -81.5827         estimate D2E/DX2                !
 ! D127  D(30,21,56,15)        177.1082         estimate D2E/DX2                !
 ! D128  D(30,21,56,18)         33.8791         estimate D2E/DX2                !
 ! D129  D(30,21,56,19)       -106.4035         estimate D2E/DX2                !
 ! D130  D(30,21,56,20)        -74.1445         estimate D2E/DX2                !
 ! D131  D(30,21,56,22)         65.1637         estimate D2E/DX2                !
 ! D132  D(30,21,56,23)        -42.6049         estimate D2E/DX2                !
 ! D133  D(30,21,56,27)         97.0081         estimate D2E/DX2                !
 ! D134  D(18,22,29,32)        126.6254         estimate D2E/DX2                !
 ! D135  D(18,22,29,33)          5.7084         estimate D2E/DX2                !
 ! D136  D(18,22,29,34)       -114.2487         estimate D2E/DX2                !
 ! D137  D(27,22,29,32)         15.709          estimate D2E/DX2                !
 ! D138  D(27,22,29,33)       -105.208          estimate D2E/DX2                !
 ! D139  D(27,22,29,34)        134.8349         estimate D2E/DX2                !
 ! D140  D(28,22,29,32)       -109.0519         estimate D2E/DX2                !
 ! D141  D(28,22,29,33)        130.0311         estimate D2E/DX2                !
 ! D142  D(28,22,29,34)         10.0739         estimate D2E/DX2                !
 ! D143  D(56,22,29,32)         74.4273         estimate D2E/DX2                !
 ! D144  D(56,22,29,33)        -46.4897         estimate D2E/DX2                !
 ! D145  D(56,22,29,34)       -166.4469         estimate D2E/DX2                !
 ! D146  D(28,22,56,15)         90.671          estimate D2E/DX2                !
 ! D147  D(28,22,56,16)         13.0743         estimate D2E/DX2                !
 ! D148  D(28,22,56,17)        172.4436         estimate D2E/DX2                !
 ! D149  D(28,22,56,19)        -11.6213         estimate D2E/DX2                !
 ! D150  D(28,22,56,20)        -51.9506         estimate D2E/DX2                !
 ! D151  D(28,22,56,21)       -173.1913         estimate D2E/DX2                !
 ! D152  D(28,22,56,23)        -70.3113         estimate D2E/DX2                !
 ! D153  D(28,22,56,25)       -158.8717         estimate D2E/DX2                !
 ! D154  D(29,22,56,15)        -94.4426         estimate D2E/DX2                !
 ! D155  D(29,22,56,16)       -172.0393         estimate D2E/DX2                !
 ! D156  D(29,22,56,17)        -12.67           estimate D2E/DX2                !
 ! D157  D(29,22,56,19)        163.2651         estimate D2E/DX2                !
 ! D158  D(29,22,56,20)        122.9359         estimate D2E/DX2                !
 ! D159  D(29,22,56,21)          1.6952         estimate D2E/DX2                !
 ! D160  D(29,22,56,23)        104.5752         estimate D2E/DX2                !
 ! D161  D(29,22,56,25)         16.0147         estimate D2E/DX2                !
 ! D162  D(1,41,43,44)          50.6972         estimate D2E/DX2                !
 ! D163  D(1,41,43,45)         -69.7051         estimate D2E/DX2                !
 ! D164  D(1,41,43,54)         167.6927         estimate D2E/DX2                !
 ! D165  D(42,41,43,44)        -64.4277         estimate D2E/DX2                !
 ! D166  D(42,41,43,45)        175.17           estimate D2E/DX2                !
 ! D167  D(42,41,43,54)         52.5678         estimate D2E/DX2                !
 ! D168  D(57,41,43,44)        177.0542         estimate D2E/DX2                !
 ! D169  D(57,41,43,45)         56.6519         estimate D2E/DX2                !
 ! D170  D(57,41,43,54)        -65.9503         estimate D2E/DX2                !
 ! D171  D(1,41,57,7)         -166.0388         estimate D2E/DX2                !
 ! D172  D(1,41,57,58)         -45.3044         estimate D2E/DX2                !
 ! D173  D(1,41,57,59)          68.5375         estimate D2E/DX2                !
 ! D174  D(42,41,57,7)         -46.058          estimate D2E/DX2                !
 ! D175  D(42,41,57,58)         74.6764         estimate D2E/DX2                !
 ! D176  D(42,41,57,59)       -171.4817         estimate D2E/DX2                !
 ! D177  D(43,41,57,7)          69.4323         estimate D2E/DX2                !
 ! D178  D(43,41,57,58)       -169.8333         estimate D2E/DX2                !
 ! D179  D(43,41,57,59)        -55.9914         estimate D2E/DX2                !
 ! D180  D(41,43,54,55)        -50.2086         estimate D2E/DX2                !
 ! D181  D(41,43,54,60)        133.3006         estimate D2E/DX2                !
 ! D182  D(44,43,54,55)         69.4207         estimate D2E/DX2                !
 ! D183  D(44,43,54,60)       -107.0701         estimate D2E/DX2                !
 ! D184  D(45,43,54,55)       -172.6321         estimate D2E/DX2                !
 ! D185  D(45,43,54,60)         10.8771         estimate D2E/DX2                !
 ! D186  D(49,46,48,47)        179.1129         estimate D2E/DX2                !
 ! D187  D(49,46,48,51)         -0.8691         estimate D2E/DX2                !
 ! D188  D(60,46,48,47)         -0.4615         estimate D2E/DX2                !
 ! D189  D(60,46,48,51)        179.5566         estimate D2E/DX2                !
 ! D190  D(48,46,60,54)         -0.8936         estimate D2E/DX2                !
 ! D191  D(48,46,60,61)        178.8595         estimate D2E/DX2                !
 ! D192  D(49,46,60,54)        179.5174         estimate D2E/DX2                !
 ! D193  D(49,46,60,61)         -0.7295         estimate D2E/DX2                !
 ! D194  D(50,47,48,46)       -179.76           estimate D2E/DX2                !
 ! D195  D(50,47,48,51)          0.2223         estimate D2E/DX2                !
 ! D196  D(55,47,48,46)          0.5364         estimate D2E/DX2                !
 ! D197  D(55,47,48,51)       -179.4812         estimate D2E/DX2                !
 ! D198  D(48,47,55,54)          0.7879         estimate D2E/DX2                !
 ! D199  D(50,47,55,54)       -178.931          estimate D2E/DX2                !
 ! D200  D(43,54,55,47)       -178.7517         estimate D2E/DX2                !
 ! D201  D(60,54,55,47)         -2.3228         estimate D2E/DX2                !
 ! D202  D(43,54,60,46)        178.4574         estimate D2E/DX2                !
 ! D203  D(43,54,60,61)         -1.3071         estimate D2E/DX2                !
 ! D204  D(55,54,60,46)          2.3988         estimate D2E/DX2                !
 ! D205  D(55,54,60,61)       -177.3657         estimate D2E/DX2                !
 --------------------------------------------------------------------------------
 Trust Radius=3.00D-01 FncErr=1.00D-07 GrdErr=1.00D-06 EigMax=2.50D+02 EigMin=1.00D-04
 Number of steps in this run=    414 maximum allowed number of steps=    414.
 GradGradGradGradGradGradGradGradGradGradGradGradGradGradGradGradGradGrad

 Leave Link  103 at Wed Mar  5 05:07:58 2025, MaxMem= 82678120448 cpu:               2.3 elap:               0.1
 (Enter /sysapps/ubuntu-applications/gaussian-new/avx/g16/l202.exe)
 Stoichiometry    C23H18F9N4O11S3Sc
 Framework group  C1[X(C23H18F9N4O11S3Sc)]
 Deg. of freedom   201
 Full point group                 C1      NOp   1
 Largest Abelian subgroup         C1      NOp   1
 Largest concise Abelian subgroup C1      NOp   1
                         Standard orientation:                         
 ---------------------------------------------------------------------
 Center     Atomic      Atomic             Coordinates (Angstroms)
 Number     Number       Type             X           Y           Z
 ---------------------------------------------------------------------
      1          6           0       -5.695735    0.463236   -0.157921
      2          6           0       -6.452211    0.266810   -1.322069
      3          6           0       -7.749189    0.771404   -1.421672
      4          6           0       -8.306177    1.480287   -0.354410
      5          6           0       -7.559681    1.683361    0.808281
      6          6           0       -6.260738    1.180047    0.907292
      7          6           0       -1.814843    0.596824    0.359984
      8          6           0       -1.190705    0.849070   -0.885993
      9          6           0       -1.040904    0.097611    1.422704
     10          1           0       -6.013176   -0.287969   -2.156381
     11          1           0       -8.324546    0.613216   -2.336441
     12          1           0       -9.320804    1.877721   -0.430362
     13          1           0       -7.987462    2.240678    1.644537
     14          1           0       -5.689246    1.354578    1.821978
     15          8           0        0.199330   -0.161575    1.410522
     16          8           0        0.049319    0.844959   -1.126521
     17          8           0        3.000054   -1.186274    0.973080
     18          8           0        2.704031   -0.162396   -1.762080
     19          8           0        0.846096    2.472242    0.989989
     20         16           0        1.748319    3.288551    0.139037
     21         16           0        3.710891   -0.321765    1.964115
     22         16           0        2.034004   -1.480429   -1.987789
     23          8           0        2.561770    2.304281   -0.645649
     24          8           0        2.452317    4.393243    0.741046
     25          8           0        3.030115    1.001507    1.859401
     26          8           0        3.966497   -0.861849    3.273885
     27          8           0        1.092749   -1.652869   -0.851405
     28          8           0        1.533726   -1.753398   -3.315186
     29          6           0        3.382373   -2.739254   -1.691953
     30          6           0        5.346541   -0.036509    1.173463
     31          6           0        0.629918    4.054686   -1.149604
     32          9           0        2.968144   -3.622038   -0.799907
     33          9           0        4.479189   -2.151047   -1.259259
     34          9           0        3.642326   -3.360857   -2.828202
     35          9           0        5.152745    0.475100   -0.029276
     36          9           0        5.990305   -1.184225    1.071043
     37          9           0        6.052212    0.804695    1.905412
     38          9           0       -0.623068    3.677417   -0.951011
     39          9           0        1.010281    3.676871   -2.356635
     40          9           0        0.702055    5.368997   -1.059902
     41          6           0       -4.285516   -0.095757   -0.089311
     42          1           0       -3.969458   -0.342459   -1.113180
     43          6           0       -4.311297   -1.483902    0.651101
     44          6           0       -5.341926   -2.358606    0.053118
     45          6           0       -4.611461   -1.284992    2.079502
     46          6           0       -1.183269   -3.495047    1.264031
     47          6           0       -1.509360   -2.929323   -1.039718
     48          6           0       -0.734508   -3.558678   -0.038215
     49          1           0       -0.654663   -3.964543    2.093665
     50          1           0       -1.209825   -2.947538   -2.089460
     51          1           0        0.187227   -4.074486   -0.305766
     52          7           0       -6.130003   -3.047891   -0.438092
     53          7           0       -4.856931   -1.087942    3.192431
     54          7           0       -3.009579   -2.221571    0.491039
     55          7           0       -2.621592   -2.286617   -0.769894
     56         21           0        1.666171    0.436891    0.111393
     57          6           0       -3.283535    0.894959    0.527380
     58          1           0       -3.504716    1.857953    0.041983
     59          1           0       -3.502481    1.030741    1.596664
     60          6           0       -2.371745   -2.802932    1.510573
     61          1           0       -2.809116   -2.717941    2.506709
     62          6           0       -2.064479    1.134953   -1.943685
     63          1           0       -2.612898    0.253113   -2.201550
     64          1           0       -2.745790    1.904234   -1.645485
     65          1           0       -1.501894    1.465791   -2.791591
     66          6           0       -1.750929   -0.187794    2.596728
     67          1           0       -2.773378    0.103139    2.474841
     68          1           0       -1.700342   -1.237497    2.797882
     69          1           0       -1.321186    0.353065    3.413853
 ---------------------------------------------------------------------
 Rotational constants (GHZ):           0.0841866           0.0380122           0.0325618
 Leave Link  202 at Wed Mar  5 05:07:59 2025, MaxMem= 82678120448 cpu:               7.0 elap:               0.5
 (Enter /sysapps/ubuntu-applications/gaussian-new/avx/g16/l301.exe)
 General basis read from cards:  (5D, 7F)
 Centers:      10     11     12     13     14     42     49     50     51     58
 Centers:      59     61     63     64     65     67     68     69
 S 3 1.00
     Exponent=  1.3010701000D+01 Coefficients=  1.9682158000D-02
     Exponent=  1.9622572000D+00 Coefficients=  1.3796524000D-01
     Exponent=  4.4453796000D-01 Coefficients=  4.7831935000D-01
 S 1 1.00
     Exponent=  1.2194962000D-01 Coefficients=  1.0000000000D+00
 P 1 1.00
     Exponent=  8.0000000000D-01 Coefficients=  1.0000000000D+00
 ****
 Centers:       1      2      3      4      5      6      7      8      9     29
 Centers:      30     31     41     43     44     45     46     47     48     57
 Centers:      60     62     66
 S 5 1.00
     Exponent=  1.2384016938D+03 Coefficients=  5.4568832082D-03
     Exponent=  1.8629004992D+02 Coefficients=  4.0638409211D-02
     Exponent=  4.2251176346D+01 Coefficients=  1.8025593888D-01
     Exponent=  1.1676557932D+01 Coefficients=  4.6315121755D-01
     Exponent=  3.5930506482D+00 Coefficients=  4.4087173314D-01
 S 1 1.00
     Exponent=  4.0245147363D-01 Coefficients=  1.0000000000D+00
 S 1 1.00
     Exponent=  1.3090182668D-01 Coefficients=  1.0000000000D+00
 P 3 1.00
     Exponent=  9.4680970621D+00 Coefficients=  3.8387871728D-02
     Exponent=  2.0103545142D+00 Coefficients=  2.1117025112D-01
     Exponent=  5.4771004707D-01 Coefficients=  5.1328172114D-01
 P 1 1.00
     Exponent=  1.5268613795D-01 Coefficients=  1.0000000000D+00
 D 1 1.00
     Exponent=  8.0000000000D-01 Coefficients=  1.0000000000D+00
 ****
 Centers:      52     53     54     55
 S 5 1.00
     Exponent=  1.7128415853D+03 Coefficients= -5.3934125305D-03
     Exponent=  2.5764812677D+02 Coefficients= -4.0221581118D-02
     Exponent=  5.8458245853D+01 Coefficients= -1.7931144990D-01
     Exponent=  1.6198367905D+01 Coefficients= -4.6376317823D-01
     Exponent=  5.0052600809D+00 Coefficients= -4.4171422662D-01
 S 1 1.00
     Exponent=  5.8731856571D-01 Coefficients=  1.0000000000D+00
 S 1 1.00
     Exponent=  1.8764592253D-01 Coefficients=  1.0000000000D+00
 P 3 1.00
     Exponent=  1.3571470233D+01 Coefficients= -4.0072398852D-02
     Exponent=  2.9257372874D+00 Coefficients= -2.1807045028D-01
     Exponent=  7.9927750754D-01 Coefficients= -5.1294466049D-01
 P 1 1.00
     Exponent=  2.1954348034D-01 Coefficients=  1.0000000000D+00
 D 1 1.00
     Exponent=  1.0000000000D+00 Coefficients=  1.0000000000D+00
 ****
 Centers:      15     16     17     18     19     23     24     25     26     27
 Centers:      28
 S 5 1.00
     Exponent=  2.2661767785D+03 Coefficients= -5.3431809926D-03
     Exponent=  3.4087010191D+02 Coefficients= -3.9890039230D-02
     Exponent=  7.7363135167D+01 Coefficients= -1.7853911985D-01
     Exponent=  2.1479644940D+01 Coefficients= -4.6427684959D-01
     Exponent=  6.6589433124D+00 Coefficients= -4.4309745172D-01
 S 1 1.00
     Exponent=  8.0975975668D-01 Coefficients=  1.0000000000D+00
 S 1 1.00
     Exponent=  2.5530772234D-01 Coefficients=  1.0000000000D+00
 P 3 1.00
     Exponent=  1.7721504317D+01 Coefficients=  4.3394573193D-02
     Exponent=  3.8635505440D+00 Coefficients=  2.3094120765D-01
     Exponent=  1.0480920883D+00 Coefficients=  5.1375311064D-01
 P 1 1.00
     Exponent=  2.7641544411D-01 Coefficients=  1.0000000000D+00
 D 1 1.00
     Exponent=  1.2000000000D+00 Coefficients=  1.0000000000D+00
 ****
 Centers:      32     33     34     35     36     37     38     39     40
 S 5 1.00
     Exponent=  2.8948325990D+03 Coefficients= -5.3408255515D-03
     Exponent=  4.3541939120D+02 Coefficients= -3.9904258866D-02
     Exponent=  9.8843328866D+01 Coefficients= -1.7912768038D-01
     Exponent=  2.7485198001D+01 Coefficients= -4.6758090825D-01
     Exponent=  8.5405498171D+00 Coefficients= -4.4653131020D-01
 S 1 1.00
     Exponent=  1.0654578038D+00 Coefficients=  1.0000000000D+00
 S 1 1.00
     Exponent=  3.3247346748D-01 Coefficients=  1.0000000000D+00
 P 3 1.00
     Exponent=  2.2696633924D+01 Coefficients= -4.5212874436D-02
     Exponent=  4.9872339257D+00 Coefficients= -2.3754317067D-01
     Exponent=  1.3491613954D+00 Coefficients= -5.1287353587D-01
 P 1 1.00
     Exponent=  3.4829881977D-01 Coefficients=  1.0000000000D+00
 D 1 1.00
     Exponent=  1.4000000000D+00 Coefficients=  1.0000000000D+00
 ****
 Centers:      20     21     22
 S 5 1.00
     Exponent=  9.1849303010D+03 Coefficients= -2.2294387756D-03
     Exponent=  1.3815105503D+03 Coefficients= -1.6683029937D-02
     Exponent=  3.1387147580D+02 Coefficients= -7.5262436116D-02
     Exponent=  8.8053870623D+01 Coefficients= -1.9376827038D-01
     Exponent=  2.7039914905D+01 Coefficients= -1.7718020803D-01
 S 3 1.00
     Exponent=  4.5648731303D+01 Coefficients= -1.0736062573D-01
     Exponent=  4.9664522326D+00 Coefficients=  6.5066293018D-01
     Exponent=  2.0116242047D+00 Coefficients=  5.9712155354D-01
 S 1 1.00
     Exponent=  3.5661077013D-01 Coefficients=  1.0000000000D+00
 S 1 1.00
     Exponent=  1.3507221477D-01 Coefficients=  1.0000000000D+00
 P 5 1.00
     Exponent=  2.6198233439D+02 Coefficients= -9.2729929822D-03
     Exponent=  6.1306894736D+01 Coefficients= -6.6547669241D-02
     Exponent=  1.9103729887D+01 Coefficients= -2.4828595903D-01
     Exponent=  6.6567720378D+00 Coefficients= -4.8703847402D-01
     Exponent=  2.3959635161D+00 Coefficients= -3.9337850312D-01
 P 1 1.00
     Exponent=  6.1776161679D-01 Coefficients=  1.0000000000D+00
 P 1 1.00
     Exponent=  1.6993376871D-01 Coefficients=  1.0000000000D+00
 D 1 1.00
     Exponent=  5.5000000000D-01 Coefficients=  1.0000000000D+00
 ****
 Centers:      56
 S 8 1.00
     Exponent=  1.9161291874D+05 Coefficients=  2.3076475942D-04
     Exponent=  2.8723850363D+04 Coefficients=  1.7890329946D-03
     Exponent=  6.5370116490D+03 Coefficients=  9.2990401140D-03
     Exponent=  1.8503097171D+03 Coefficients=  3.7739438011D-02
     Exponent=  6.0238855156D+02 Coefficients=  1.2227148359D-01
     Exponent=  2.1617324766D+02 Coefficients=  2.8814821470D-01
     Exponent=  8.3712517880D+01 Coefficients=  4.0517543099D-01
     Exponent=  3.2908707189D+01 Coefficients=  2.0566019623D-01
 S 4 1.00
     Exponent=  2.1134393234D+02 Coefficients= -2.4527991462D-02
     Exponent=  6.5128920139D+01 Coefficients= -1.1570158142D-01
     Exponent=  1.0034311535D+01 Coefficients=  5.5995283317D-01
     Exponent=  4.1596884597D+00 Coefficients=  5.6087765073D-01
 S 2 1.00
     Exponent=  6.0009041613D+00 Coefficients= -2.2840494325D-01
     Exponent=  9.8255784150D-01 Coefficients=  7.1948970378D-01
 S 1 1.00
     Exponent=  4.2483192773D-01 Coefficients=  1.0000000000D+00
 S 1 1.00
     Exponent=  7.7185462096D-02 Coefficients=  1.0000000000D+00
 S 1 1.00
     Exponent=  3.0147219702D-02 Coefficients=  1.0000000000D+00
 P 6 1.00
     Exponent=  9.4734122823D+02 Coefficients=  2.4737208744D-03
     Exponent=  2.2409699732D+02 Coefficients=  1.9742967060D-02
     Exponent=  7.1560334882D+01 Coefficients=  9.0357147549D-02
     Exponent=  2.6444824490D+01 Coefficients=  2.5201602503D-01
     Exponent=  1.0393798285D+01 Coefficients=  3.9675535929D-01
     Exponent=  4.1606304559D+00 Coefficients=  2.3208624517D-01
 P 3 1.00
     Exponent=  1.5565737135D+01 Coefficients= -2.7129423974D-02
     Exponent=  2.1121544865D+00 Coefficients=  5.5109256629D-01
     Exponent=  8.4184709021D-01 Coefficients=  1.0090635806D+00
 P 1 1.00
     Exponent=  3.2297542652D-01 Coefficients=  1.0000000000D+00
 P 1 1.00
     Exponent=  8.9748000000D-02 Coefficients=  1.0000000000D+00
 D 4 1.00
     Exponent=  3.0989390993D+01 Coefficients=  1.1902837431D-02
     Exponent=  8.6905465069D+00 Coefficients=  6.7655856850D-02
     Exponent=  2.9520256337D+00 Coefficients=  2.1332539722D-01
     Exponent=  1.0761910745D+00 Coefficients=  3.8391075578D-01
 D 1 1.00
     Exponent=  3.8338915095D-01 Coefficients=  4.3354716259D-01
 D 1 1.00
     Exponent=  1.2534686113D-01 Coefficients=  2.4509263822D-01
 D 1 1.00
     Exponent=  4.1000000000D-02 Coefficients=  1.0000000000D+00
 F 1 1.00
     Exponent=  3.4500000000D-01 Coefficients=  1.0000000000D+00
 ****
 Ernie: Thresh=  0.10000D-02 Tol=  0.10000D-05 Strict=F.
 There are   904 symmetry adapted cartesian basis functions of A   symmetry.
 There are   847 symmetry adapted basis functions of A   symmetry.
   847 basis functions,  1514 primitive gaussians,   904 cartesian basis functions
   211 alpha electrons      211 beta electrons
       nuclear repulsion energy      9930.6390235612 Hartrees.
 IExCor= 7252 DFT=T Ex+Corr=MN15 ExCW=0 ScaHFX=  0.440000
 ScaDFX=  1.000000  1.000000  1.000000  1.000000 ScalE2=  1.000000  1.000000
 IRadAn=      5 IRanWt=     -1 IRanGd=            0 ICorTp=0 IEmpDi=  4
 NAtoms=   69 NActive=   69 NUniq=   69 SFac= 1.00D+00 NAtFMM=   60 NAOKFM=T Big=T
 Integral buffers will be    131072 words long.
 Raffenetti 2 integral format.
 Two-electron integral symmetry is turned on.
 ------------------------------------------------------------------------------
 Polarizable Continuum Model (PCM)
 =================================
 Model                : PCM.
 Atomic radii         : SMD-Coulomb.
 Polarization charges : Total charges.
 Charge compensation  : None.
 Solution method      : On-the-fly selection.
 Cavity type          : VdW (van der Waals Surface) (Alpha=1.000).
 Cavity algorithm     : GePol (No added spheres)
                        Default sphere list used, NSphG=   69.
                        Lebedev-Laikov grids with approx.  5.0 points / Ang**2.
                        Smoothing algorithm: York/Karplus (Gamma=1.0000).
                        Polarization charges: spherical gaussians, with
                                              point-specific exponents (IZeta= 3).
                        Self-potential: point-specific (ISelfS= 7).
                        Self-field    : sphere-specific E.n sum rule (ISelfD= 2).
 1st derivatives      : Analytical E(r).r(x)/FMM algorithm (CHGder, D1EAlg=3).
                        Cavity 1st derivative terms included.
 Solvent              : DiChloroEthane, Eps=  10.125000 Eps(inf)=   2.087447
 ------------------------------------------------------------------------------
 GePol: Number of generator spheres                  =      69
 GePol: Total number of spheres                      =      69
 GePol: Number of exposed spheres                    =      68 ( 98.55%)
 GePol: Number of points                             =    4805
 GePol: Average weight of points                     =       0.13
 GePol: Minimum weight of points                     =   0.83D-11
 GePol: Maximum weight of points                     =    0.21501
 GePol: Number of points with low weight             =     292
 GePol: Fraction of low-weight points (<1% of avg)   =       6.08%
 GePol: Cavity surface area                          =    608.518 Ang**2
 GePol: Cavity volume                                =    734.457 Ang**3
 ------------------------------------------------------------------------------
 Atomic radii for non-electrostatic terms: SMD-CDS.
 ------------------------------------------------------------------------------
 PCM non-electrostatic energy =         0.0033295951 Hartrees.
 Nuclear repulsion after PCM non-electrostatic terms =     9930.6423531563 Hartrees.
 Leave Link  301 at Wed Mar  5 05:07:59 2025, MaxMem= 82678120448 cpu:               6.6 elap:               0.4
 (Enter /sysapps/ubuntu-applications/gaussian-new/avx/g16/l302.exe)
 NPDir=0 NMtPBC=     1 NCelOv=     1 NCel=       1 NClECP=     1 NCelD=      1
         NCelK=      1 NCelE2=     1 NClLst=     1 CellRange=     0.0.
 One-electron integrals computed using PRISM.
 One-electron integral symmetry used in STVInt
 NBasis=   847 RedAO= T EigKep=  2.27D-04  NBF=   847
 NBsUse=   847 1.00D-06 EigRej= -1.00D+00 NBFU=   847
 Precomputing XC quadrature grid using
 IXCGrd= 4 IRadAn=           5 IRanWt=          -1 IRanGd=           0 AccXCQ= 0.00D+00.
 Generated NRdTot=       0 NPtTot=           0 NUsed=           0 NTot=          32
 NSgBfM=   860   859   860   860   860 MxSgAt=    69 MxSgA2=    69.
 Leave Link  302 at Wed Mar  5 05:08:02 2025, MaxMem= 82678120448 cpu:              49.4 elap:               2.2
 (Enter /sysapps/ubuntu-applications/gaussian-new/avx/g16/l303.exe)
 DipDrv:  MaxL=1.
 Leave Link  303 at Wed Mar  5 05:08:03 2025, MaxMem= 82678120448 cpu:              13.7 elap:               0.8
 (Enter /sysapps/ubuntu-applications/gaussian-new/avx/g16/l401.exe)
 ExpMin= 3.01D-02 ExpMax= 1.92D+05 ExpMxC= 1.85D+03 IAcc=3 IRadAn=         5 AccDes= 0.00D+00
 Harris functional with IExCor= 1009 and IRadAn=       5 diagonalized for initial guess.
 HarFok:  IExCor= 1009 AccDes= 0.00D+00 IRadAn=         5 IDoV= 1 UseB2=F ITyADJ=14
 ICtDFT=  3500011 ScaDFX=  1.000000  1.000000  1.000000  1.000000
 FoFCou: FMM=F IPFlag=           0 FMFlag=      100000 FMFlg1=        2001
         NFxFlg=           0 DoJE=T BraDBF=F KetDBF=T FulRan=T
         wScrn=  0.000000 ICntrl=       500 IOpCl=  0 I1Cent=   200000004 NGrid=           0
         NMat0=    1 NMatS0=      1 NMatT0=    0 NMatD0=    1 NMtDS0=    0 NMtDT0=    0
 Petite list used in FoFCou.
 Harris En= -4781.92211408314    
 JPrj=0 DoOrth=F DoCkMO=F.
 Leave Link  401 at Wed Mar  5 05:08:12 2025, MaxMem= 82678120448 cpu:             220.8 elap:               9.7
 (Enter /sysapps/ubuntu-applications/gaussian-new/avx/g16/l502.exe)
 Integral symmetry usage will be decided dynamically.
 Closed shell SCF:
 Using DIIS extrapolation, IDIIS=  1040.
 NGot= 82678120448 LenX= 82676454397 LenY= 82675636277
 Requested convergence on RMS density matrix=1.00D-08 within 500 cycles.
 Requested convergence on MAX density matrix=1.00D-06.
 Requested convergence on             energy=1.00D-06.
 No special actions if energy rises.
 Fock matrices will be formed incrementally for  20 cycles.

 Cycle   1  Pass 1  IDiag  1:
 FoFJK:  IHMeth= 1 ICntrl=       0 DoSepK=F KAlg= 0 I1Cent=           0 FoldK=F
 IRaf= 830000000 NMat=       1 IRICut=       1 DoRegI=T DoRafI=F ISym2E= 0 IDoP0=0 IntGTp=1.
 FoFCou: FMM=T IPFlag=           0 FMFlag=      100000 FMFlg1=        2001
         NFxFlg=           0 DoJE=F BraDBF=F KetDBF=F FulRan=T
         wScrn=  0.000000 ICntrl=         0 IOpCl=  0 I1Cent=           0 NGrid=           0
         NMat0=    1 NMatS0=      1 NMatT0=    0 NMatD0=    1 NMtDS0=    0 NMtDT0=    0
 Symmetry not used in FoFCou.
 FMM levels:  10  Number of levels for PrismC:   9
 Inv3:  Mode=1 IEnd=    69264075.
 Iteration    1 A*A^-1 deviation from unit magnitude is 4.44D-15 for   4779.
 Iteration    1 A*A^-1 deviation from orthogonality  is 3.85D-15 for   4798   4759.
 Iteration    1 A^-1*A deviation from unit magnitude is 4.88D-15 for   4799.
 Iteration    1 A^-1*A deviation from orthogonality  is 4.25D-15 for   4804   4781.
 E= -4780.13960805412    
 DIIS: error= 2.65D-02 at cycle   1 NSaved=   1.
 NSaved= 1 IEnMin= 1 EnMin= -4780.13960805412     IErMin= 1 ErrMin= 2.65D-02
 ErrMax= 2.65D-02  0.00D+00 EMaxC= 1.00D-01 BMatC= 2.00D+00 BMatP= 2.00D+00
 IDIUse=3 WtCom= 7.35D-01 WtEn= 2.65D-01
 Coeff-Com:  0.100D+01
 Coeff-En:   0.100D+01
 Coeff:      0.100D+01
 Gap=     0.302 Goal=   None    Shift=    0.000
 GapD=    0.302 DampG=1.000 DampE=0.250 DampFc=0.2500 IDamp=-1.
 Damping current iteration by 2.50D-01
 RMSDP=4.01D-03 MaxDP=3.53D-01              OVMax= 2.44D-01

 Cycle   2  Pass 1  IDiag  1:
 RMSU=  1.00D-03    CP:  9.98D-01
 E= -4780.68353588792     Delta-E=       -0.543927833798 Rises=F Damp=T
 DIIS: error= 1.18D-02 at cycle   2 NSaved=   2.
 NSaved= 2 IEnMin= 2 EnMin= -4780.68353588792     IErMin= 2 ErrMin= 1.18D-02
 ErrMax= 1.18D-02  0.00D+00 EMaxC= 1.00D-01 BMatC= 3.50D-01 BMatP= 2.00D+00
 IDIUse=3 WtCom= 8.82D-01 WtEn= 1.18D-01
 Coeff-Com: -0.567D+00 0.157D+01
 Coeff-En:   0.000D+00 0.100D+01
 Coeff:     -0.500D+00 0.150D+01
 Gap=     0.195 Goal=   None    Shift=    0.000
 RMSDP=1.06D-03 MaxDP=7.94D-02 DE=-5.44D-01 OVMax= 1.81D-01

 Cycle   3  Pass 1  IDiag  1:
 RMSU=  8.91D-04    CP:  9.91D-01  1.56D+00
 E= -4781.62245065062     Delta-E=       -0.938914762695 Rises=F Damp=F
 DIIS: error= 5.76D-03 at cycle   3 NSaved=   3.
 NSaved= 3 IEnMin= 3 EnMin= -4781.62245065062     IErMin= 3 ErrMin= 5.76D-03
 ErrMax= 5.76D-03  0.00D+00 EMaxC= 1.00D-01 BMatC= 7.28D-02 BMatP= 3.50D-01
 IDIUse=3 WtCom= 9.42D-01 WtEn= 5.76D-02
 Coeff-Com: -0.305D+00 0.734D+00 0.571D+00
 Coeff-En:   0.000D+00 0.000D+00 0.100D+01
 Coeff:     -0.288D+00 0.692D+00 0.596D+00
 Gap=     0.164 Goal=   None    Shift=    0.000
 RMSDP=4.61D-04 MaxDP=5.14D-02 DE=-9.39D-01 OVMax= 5.80D-02

 Cycle   4  Pass 1  IDiag  1:
 RMSU=  3.77D-04    CP:  9.94D-01  1.65D+00  7.25D-01
 E= -4781.66954317107     Delta-E=       -0.047092520455 Rises=F Damp=F
 DIIS: error= 3.53D-03 at cycle   4 NSaved=   4.
 NSaved= 4 IEnMin= 4 EnMin= -4781.66954317107     IErMin= 4 ErrMin= 3.53D-03
 ErrMax= 3.53D-03  0.00D+00 EMaxC= 1.00D-01 BMatC= 2.47D-02 BMatP= 7.28D-02
 IDIUse=3 WtCom= 9.65D-01 WtEn= 3.53D-02
 Coeff-Com: -0.122D+00 0.244D+00 0.379D+00 0.500D+00
 Coeff-En:   0.000D+00 0.000D+00 0.233D+00 0.767D+00
 Coeff:     -0.118D+00 0.235D+00 0.374D+00 0.509D+00
 Gap=     0.165 Goal=   None    Shift=    0.000
 RMSDP=2.16D-04 MaxDP=2.47D-02 DE=-4.71D-02 OVMax= 3.05D-02

 Cycle   5  Pass 1  IDiag  1:
 RMSU=  1.40D-04    CP:  9.93D-01  1.60D+00  7.91D-01  6.11D-01
 E= -4781.68811496938     Delta-E=       -0.018571798313 Rises=F Damp=F
 DIIS: error= 1.15D-03 at cycle   5 NSaved=   5.
 NSaved= 5 IEnMin= 5 EnMin= -4781.68811496938     IErMin= 5 ErrMin= 1.15D-03
 ErrMax= 1.15D-03  0.00D+00 EMaxC= 1.00D-01 BMatC= 2.29D-03 BMatP= 2.47D-02
 IDIUse=3 WtCom= 9.88D-01 WtEn= 1.15D-02
 Coeff-Com: -0.344D-01 0.459D-01 0.120D+00 0.277D+00 0.592D+00
 Coeff-En:   0.000D+00 0.000D+00 0.000D+00 0.424D-01 0.958D+00
 Coeff:     -0.340D-01 0.453D-01 0.119D+00 0.274D+00 0.596D+00
 Gap=     0.162 Goal=   None    Shift=    0.000
 RMSDP=6.14D-05 MaxDP=6.41D-03 DE=-1.86D-02 OVMax= 9.12D-03

 Cycle   6  Pass 1  IDiag  1:
 RMSU=  4.43D-05    CP:  9.93D-01  1.62D+00  7.98D-01  6.47D-01  7.54D-01
 E= -4781.69005341169     Delta-E=       -0.001938442307 Rises=F Damp=F
 DIIS: error= 2.54D-04 at cycle   6 NSaved=   6.
 NSaved= 6 IEnMin= 6 EnMin= -4781.69005341169     IErMin= 6 ErrMin= 2.54D-04
 ErrMax= 2.54D-04  0.00D+00 EMaxC= 1.00D-01 BMatC= 1.89D-04 BMatP= 2.29D-03
 IDIUse=3 WtCom= 9.97D-01 WtEn= 2.54D-03
 Coeff-Com: -0.914D-02 0.588D-02 0.292D-01 0.919D-01 0.301D+00 0.581D+00
 Coeff-En:   0.000D+00 0.000D+00 0.000D+00 0.000D+00 0.000D+00 0.100D+01
 Coeff:     -0.912D-02 0.586D-02 0.291D-01 0.916D-01 0.300D+00 0.582D+00
 Gap=     0.163 Goal=   None    Shift=    0.000
 RMSDP=2.15D-05 MaxDP=2.29D-03 DE=-1.94D-03 OVMax= 3.40D-03

 Cycle   7  Pass 1  IDiag  1:
 RMSU=  1.66D-05    CP:  9.93D-01  1.63D+00  8.01D-01  6.57D-01  7.90D-01
                    CP:  7.37D-01
 E= -4781.69018712407     Delta-E=       -0.000133712378 Rises=F Damp=F
 DIIS: error= 1.38D-04 at cycle   7 NSaved=   7.
 NSaved= 7 IEnMin= 7 EnMin= -4781.69018712407     IErMin= 7 ErrMin= 1.38D-04
 ErrMax= 1.38D-04  0.00D+00 EMaxC= 1.00D-01 BMatC= 3.60D-05 BMatP= 1.89D-04
 IDIUse=3 WtCom= 9.99D-01 WtEn= 1.38D-03
 Coeff-Com: -0.929D-03-0.225D-02-0.109D-02 0.106D-01 0.890D-01 0.350D+00
 Coeff-Com:  0.555D+00
 Coeff-En:   0.000D+00 0.000D+00 0.000D+00 0.000D+00 0.000D+00 0.102D+00
 Coeff-En:   0.898D+00
[...]
 Alpha  occ. eigenvalues --   -0.67230  -0.66957  -0.66898  -0.66847  -0.66792
 Alpha  occ. eigenvalues --   -0.66591  -0.64515  -0.63341  -0.62716  -0.62384
 Alpha  occ. eigenvalues --   -0.61789  -0.61341  -0.60572  -0.59091  -0.57857
 Alpha  occ. eigenvalues --   -0.57011  -0.56697  -0.56213  -0.55984  -0.55768
 Alpha  occ. eigenvalues --   -0.55587  -0.55265  -0.54943  -0.54699  -0.54595
 Alpha  occ. eigenvalues --   -0.54554  -0.54437  -0.54259  -0.53672  -0.53409
 Alpha  occ. eigenvalues --   -0.53286  -0.52950  -0.52785  -0.52454  -0.52349
 Alpha  occ. eigenvalues --   -0.52120  -0.51451  -0.51327  -0.51048  -0.50924
 Alpha  occ. eigenvalues --   -0.50825  -0.50485  -0.50360  -0.50265  -0.49865
 Alpha  occ. eigenvalues --   -0.49015  -0.48632  -0.48372  -0.48302  -0.47736
 Alpha  occ. eigenvalues --   -0.47678  -0.47374  -0.47186  -0.46408  -0.46251
 Alpha  occ. eigenvalues --   -0.46126  -0.45704  -0.45198  -0.44695  -0.44281
 Alpha  occ. eigenvalues --   -0.44067  -0.43989  -0.43355  -0.43211  -0.42443
 Alpha  occ. eigenvalues --   -0.42229  -0.41960  -0.41766  -0.41665  -0.41649
 Alpha  occ. eigenvalues --   -0.41217  -0.41150  -0.40865  -0.40211  -0.39920
 Alpha  occ. eigenvalues --   -0.39586  -0.39436  -0.39098  -0.38958  -0.38428
 Alpha  occ. eigenvalues --   -0.38182  -0.38142  -0.37931  -0.37634  -0.37319
 Alpha  occ. eigenvalues --   -0.36877  -0.36532  -0.36154  -0.35918  -0.35490
 Alpha  occ. eigenvalues --   -0.34984  -0.34656  -0.31383  -0.29794  -0.29695
 Alpha  occ. eigenvalues --   -0.26812
 Alpha virt. eigenvalues --   -0.10148  -0.06128  -0.03956  -0.03003  -0.00459
 Alpha virt. eigenvalues --    0.00452   0.00801   0.00977   0.02391   0.02697
 Alpha virt. eigenvalues --    0.03810   0.03836   0.05218   0.06974   0.07241
 Alpha virt. eigenvalues --    0.08598   0.09167   0.09306   0.09636   0.09966
 Alpha virt. eigenvalues --    0.10019   0.10239   0.10462   0.10595   0.10939
 Alpha virt. eigenvalues --    0.11016   0.11147   0.11319   0.11845   0.12156
 Alpha virt. eigenvalues --    0.12490   0.13155   0.13588   0.14042   0.14583
 Alpha virt. eigenvalues --    0.14792   0.15362   0.15951   0.15982   0.16420
 Alpha virt. eigenvalues --    0.16873   0.17068   0.17655   0.18480   0.18800
 Alpha virt. eigenvalues --    0.18904   0.19092   0.19503   0.19925   0.20474
 Alpha virt. eigenvalues --    0.20526   0.21121   0.21427   0.22213   0.22574
 Alpha virt. eigenvalues --    0.22707   0.22869   0.23070   0.24390   0.24792
 Alpha virt. eigenvalues --    0.24821   0.25230   0.25963   0.26005   0.26423
 Alpha virt. eigenvalues --    0.26840   0.26959   0.27396   0.27470   0.28171
 Alpha virt. eigenvalues --    0.28273   0.28662   0.28791   0.29418   0.29527
 Alpha virt. eigenvalues --    0.30129   0.30731   0.31017   0.31794   0.32293
 Alpha virt. eigenvalues --    0.32788   0.33590   0.34068   0.34214   0.35420
 Alpha virt. eigenvalues --    0.35468   0.37038   0.38324   0.39084   0.39476
 Alpha virt. eigenvalues --    0.40115   0.40534   0.40836   0.41309   0.41814
 Alpha virt. eigenvalues --    0.42659   0.43498   0.43704   0.44439   0.44713
 Alpha virt. eigenvalues --    0.45046   0.45671   0.45964   0.46171   0.46475
 Alpha virt. eigenvalues --    0.46828   0.48080   0.48286   0.48480   0.48773
 Alpha virt. eigenvalues --    0.49020   0.49462   0.49755   0.49866   0.50147
 Alpha virt. eigenvalues --    0.50611   0.50774   0.51026   0.51286   0.51961
 Alpha virt. eigenvalues --    0.52346   0.52775   0.53211   0.53816   0.53872
 Alpha virt. eigenvalues --    0.55005   0.55513   0.56085   0.56344   0.56670
 Alpha virt. eigenvalues --    0.57383   0.57610   0.58275   0.58488   0.58839
 Alpha virt. eigenvalues --    0.59039   0.59887   0.59947   0.60577   0.61641
 Alpha virt. eigenvalues --    0.61831   0.62307   0.62610   0.63142   0.63438
 Alpha virt. eigenvalues --    0.64038   0.64237   0.64741   0.65346   0.65516
 Alpha virt. eigenvalues --    0.65756   0.66190   0.66540   0.66848   0.67212
 Alpha virt. eigenvalues --    0.67295   0.67686   0.68289   0.68369   0.69047
 Alpha virt. eigenvalues --    0.69281   0.69481   0.69642   0.69908   0.69987
 Alpha virt. eigenvalues --    0.70240   0.70589   0.70964   0.71151   0.71495
 Alpha virt. eigenvalues --    0.71905   0.72145   0.72524   0.73006   0.73063
 Alpha virt. eigenvalues --    0.73651   0.73894   0.74171   0.74444   0.74973
 Alpha virt. eigenvalues --    0.74993   0.75528   0.75802   0.76351   0.76504
 Alpha virt. eigenvalues --    0.76683   0.77404   0.77871   0.78448   0.78668
 Alpha virt. eigenvalues --    0.78845   0.80041   0.80439   0.80901   0.81747
 Alpha virt. eigenvalues --    0.82324   0.82775   0.83681   0.83993   0.84997
 Alpha virt. eigenvalues --    0.85261   0.85903   0.85944   0.86766   0.87421
 Alpha virt. eigenvalues --    0.87837   0.88302   0.88607   0.89023   0.89504
 Alpha virt. eigenvalues --    0.90189   0.90635   0.91456   0.91736   0.92309
 Alpha virt. eigenvalues --    0.93511   0.93994   0.94398   0.94779   0.95136
 Alpha virt. eigenvalues --    0.96103   0.96411   0.97457   0.97696   0.98490
 Alpha virt. eigenvalues --    0.99165   0.99835   1.00297   1.00723   1.00925
 Alpha virt. eigenvalues --    1.01776   1.02341   1.02799   1.03179   1.03995
 Alpha virt. eigenvalues --    1.04568   1.04820   1.05546   1.06206   1.06681
 Alpha virt. eigenvalues --    1.07395   1.08246   1.08718   1.08876   1.09230
 Alpha virt. eigenvalues --    1.09664   1.10495   1.11397   1.11711   1.11788
 Alpha virt. eigenvalues --    1.12261   1.12680   1.12973   1.13785   1.14347
 Alpha virt. eigenvalues --    1.14665   1.14993   1.15880   1.16020   1.16263
 Alpha virt. eigenvalues --    1.16601   1.16827   1.17309   1.18334   1.18626
 Alpha virt. eigenvalues --    1.19122   1.19657   1.19808   1.20337   1.20690
 Alpha virt. eigenvalues --    1.21017   1.21394   1.21614   1.22028   1.22351
 Alpha virt. eigenvalues --    1.22711   1.23028   1.23696   1.23845   1.24017
 Alpha virt. eigenvalues --    1.24724   1.25597   1.25950   1.26259   1.26806
 Alpha virt. eigenvalues --    1.27275   1.27908   1.27981   1.28884   1.29141
 Alpha virt. eigenvalues --    1.29956   1.30807   1.30967   1.31461   1.31917
 Alpha virt. eigenvalues --    1.32264   1.32586   1.33217   1.33709   1.33837
 Alpha virt. eigenvalues --    1.34783   1.35017   1.35028   1.35588   1.36802
 Alpha virt. eigenvalues --    1.37068   1.37739   1.38052   1.38580   1.39488
 Alpha virt. eigenvalues --    1.39845   1.40015   1.40622   1.40750   1.41708
 Alpha virt. eigenvalues --    1.41908   1.42931   1.43483   1.44238   1.44679
 Alpha virt. eigenvalues --    1.44926   1.45366   1.45761   1.46139   1.47258
 Alpha virt. eigenvalues --    1.47579   1.48449   1.49672   1.50677   1.50807
 Alpha virt. eigenvalues --    1.51231   1.51756   1.52376   1.52498   1.53335
 Alpha virt. eigenvalues --    1.53842   1.54266   1.54811   1.56016   1.56807
 Alpha virt. eigenvalues --    1.57216   1.57920   1.58156   1.58786   1.59196
 Alpha virt. eigenvalues --    1.60500   1.60915   1.61221   1.61782   1.62051
 Alpha virt. eigenvalues --    1.62465   1.62737   1.63417   1.63981   1.64533
 Alpha virt. eigenvalues --    1.65015   1.65908   1.66162   1.66656   1.67164
 Alpha virt. eigenvalues --    1.67660   1.68200   1.68673   1.68699   1.69839
 Alpha virt. eigenvalues --    1.70230   1.70716   1.71338   1.72153   1.72534
 Alpha virt. eigenvalues --    1.72673   1.73174   1.73374   1.74194   1.74346
 Alpha virt. eigenvalues --    1.74686   1.74908   1.75019   1.75324   1.76425
 Alpha virt. eigenvalues --    1.76680   1.76821   1.77480   1.79311   1.79987
 Alpha virt. eigenvalues --    1.80661   1.80733   1.81956   1.82278   1.82753
 Alpha virt. eigenvalues --    1.83284   1.83557   1.84263   1.85139   1.85664
 Alpha virt. eigenvalues --    1.85931   1.86608   1.86798   1.87213   1.87564
 Alpha virt. eigenvalues --    1.87681   1.88276   1.89206   1.89709   1.89875
 Alpha virt. eigenvalues --    1.90105   1.90738   1.91252   1.91483   1.91997
 Alpha virt. eigenvalues --    1.92655   1.93006   1.93225   1.93767   1.93945
 Alpha virt. eigenvalues --    1.94545   1.94667   1.95675   1.95879   1.96202
 Alpha virt. eigenvalues --    1.97198   1.97276   1.98109   1.98390   1.98930
 Alpha virt. eigenvalues --    1.99699   2.00583   2.00741   2.00912   2.01462
 Alpha virt. eigenvalues --    2.02541   2.03315   2.04472   2.04495   2.04800
 Alpha virt. eigenvalues --    2.05316   2.05722   2.06817   2.07310   2.08142
 Alpha virt. eigenvalues --    2.08375   2.08929   2.09445   2.10759   2.11995
 Alpha virt. eigenvalues --    2.12260   2.12616   2.13427   2.14343   2.14990
 Alpha virt. eigenvalues --    2.16755   2.17612   2.19169   2.19216   2.20563
 Alpha virt. eigenvalues --    2.20712   2.21333   2.22056   2.22369   2.22568
 Alpha virt. eigenvalues --    2.23261   2.23587   2.23855   2.24360   2.24696
 Alpha virt. eigenvalues --    2.25640   2.26716   2.27794   2.28312   2.30568
 Alpha virt. eigenvalues --    2.30688   2.31394   2.31921   2.32964   2.34838
 Alpha virt. eigenvalues --    2.35573   2.36644   2.37986   2.40091   2.40437
 Alpha virt. eigenvalues --    2.42610   2.43292   2.44444   2.45410   2.47157
 Alpha virt. eigenvalues --    2.47634   2.48436   2.48853   2.53393   2.54614
 Alpha virt. eigenvalues --    2.56147   2.56497   2.56918   2.57428   2.58510
 Alpha virt. eigenvalues --    2.58624   2.59596   2.60787   2.60977   2.61368
 Alpha virt. eigenvalues --    2.61531   2.62191   2.62498   2.62871   2.63224
 Alpha virt. eigenvalues --    2.63728   2.63861   2.64891   2.66090   2.66484
 Alpha virt. eigenvalues --    2.67055   2.67908   2.68320   2.68508   2.68694
 Alpha virt. eigenvalues --    2.70056   2.70130   2.70711   2.71028   2.71621
 Alpha virt. eigenvalues --    2.73029   2.73416   2.74050   2.74509   2.74610
 Alpha virt. eigenvalues --    2.76636   2.77740   2.78236   2.78364   2.79087
 Alpha virt. eigenvalues --    2.79694   2.80177   2.80481   2.80754   2.81519
 Alpha virt. eigenvalues --    2.81827   2.82409   2.83162   2.83395   2.83987
 Alpha virt. eigenvalues --    2.84828   2.85633   2.86845   2.87725   2.88823
 Alpha virt. eigenvalues --    2.89697   2.90033   2.90993   2.92115   2.92344
 Alpha virt. eigenvalues --    2.92801   2.93523   2.94128   2.94552   2.95276
 Alpha virt. eigenvalues --    2.95740   2.95931   2.96857   2.97580   2.98417
 Alpha virt. eigenvalues --    2.98657   2.99047   2.99329   2.99771   2.99994
 Alpha virt. eigenvalues --    3.00341   3.01773   3.02839   3.03110   3.03399
 Alpha virt. eigenvalues --    3.03458   3.03495   3.03591   3.03690   3.03725
 Alpha virt. eigenvalues --    3.03878   3.03959   3.04057   3.04242   3.04255
 Alpha virt. eigenvalues --    3.04568   3.04972   3.05154   3.05299   3.05599
 Alpha virt. eigenvalues --    3.05974   3.06484   3.06872   3.07638   3.07942
 Alpha virt. eigenvalues --    3.10802   3.11513   3.11752   3.14463   3.15863
 Alpha virt. eigenvalues --    3.16052   3.16222   3.16514   3.16939   3.17082
 Alpha virt. eigenvalues --    3.21049   3.22413   3.23760   3.32239   3.34448
 Alpha virt. eigenvalues --    3.35627   3.36432   3.37026   3.38052   3.38399
 Alpha virt. eigenvalues --    3.38885   3.38979   3.39295   3.39395   3.40036
 Alpha virt. eigenvalues --    3.40457   3.43855   3.50998   3.52450   3.52534
 Alpha virt. eigenvalues --    3.52926   3.53609   3.53979   3.54538   3.56755
 Alpha virt. eigenvalues --    3.58418   3.61919   3.67612   3.67837   3.68301
 Alpha virt. eigenvalues --    3.81180   3.81581   3.82783   3.83432   3.83904
 Alpha virt. eigenvalues --    3.84410
          Condensed to atoms (all electrons):
 Mulliken charges:
               1
     1  C   -0.031768
     2  C    0.003202
     3  C    0.004274
     4  C    0.014994
     5  C    0.002936
     6  C    0.008217
     7  C   -0.099244
     8  C    0.035014
     9  C    0.015290
    10  H    0.005888
    11  H    0.013405
    12  H    0.016019
    13  H    0.012799
    14  H    0.002588
    15  O   -0.311717
    16  O   -0.294995
    17  O   -0.440598
    18  O   -0.442370
    19  O   -0.422927
    20  S    0.882358
    21  S    0.865303
    22  S    0.865165
    23  O   -0.446777
    24  O   -0.414215
    25  O   -0.433991
    26  O   -0.406899
    27  O   -0.449488
    28  O   -0.422785
    29  C    0.431954
    30  C    0.432135
    31  C    0.418981
    32  F   -0.125481
    33  F   -0.116461
    34  F   -0.129661
    35  F   -0.107020
    36  F   -0.126601
    37  F   -0.126756
    38  F   -0.128874
    39  F   -0.115542
    40  F   -0.126959
    41  C    0.019429
    42  H    0.025782
    43  C   -0.094070
    44  C   -0.115381
    45  C   -0.202459
    46  C    0.038332
    47  C    0.079318
    48  C    0.152795
    49  H    0.093749
    50  H    0.080872
    51  H    0.076775
    52  N    0.142001
    53  N    0.154568
    54  N   -0.097669
    55  N    0.014814
    56  Sc   0.270576
    57  C    0.156860
    58  H    0.045462
    59  H    0.026573
    60  C    0.209139
    61  H    0.113783
    62  C    0.105182
    63  H    0.075857
    64  H    0.037990
    65  H    0.036265
    66  C    0.106496
    67  H    0.015453
    68  H    0.038297
    69  H    0.083823
 Sum of Mulliken charges =  -0.00000
 Mulliken charges with hydrogens summed into heavy atoms:
               1
     1  C   -0.031768
     2  C    0.009090
     3  C    0.017679
     4  C    0.031013
     5  C    0.015735
     6  C    0.010805
     7  C   -0.099244
     8  C    0.035014
     9  C    0.015290
    15  O   -0.311717
    16  O   -0.294995
    17  O   -0.440598
    18  O   -0.442370
    19  O   -0.422927
    20  S    0.882358
    21  S    0.865303
    22  S    0.865165
    23  O   -0.446777
    24  O   -0.414215
    25  O   -0.433991
    26  O   -0.406899
    27  O   -0.449488
    28  O   -0.422785
    29  C    0.431954
    30  C    0.432135
    31  C    0.418981
    32  F   -0.125481
    33  F   -0.116461
    34  F   -0.129661
    35  F   -0.107020
    36  F   -0.126601
    37  F   -0.126756
    38  F   -0.128874
    39  F   -0.115542
    40  F   -0.126959
    41  C    0.045211
    43  C   -0.094070
    44  C   -0.115381
    45  C   -0.202459
    46  C    0.132081
    47  C    0.160189
    48  C    0.229570
    52  N    0.142001
    53  N    0.154568
    54  N   -0.097669
    55  N    0.014814
    56  Sc   0.270576
    57  C    0.228894
    60  C    0.322922
    62  C    0.255293
    66  C    0.244069
 Electronic spatial extent (au):  <R**2>=          32604.8328
 Charge=              0.0000 electrons
 Dipole moment (field-independent basis, Debye):
    X=            -19.7605    Y=            -12.1099    Z=              2.3089  Tot=             23.2907
 Quadrupole moment (field-independent basis, Debye-Ang):
   XX=           -325.3783   YY=           -309.4831   ZZ=           -331.3522
   XY=            -19.1566   XZ=            -11.2501   YZ=            -18.8568
 Traceless Quadrupole moment (field-independent basis, Debye-Ang):
   XX=             -3.3071   YY=             12.5881   ZZ=             -9.2810
   XY=            -19.1566   XZ=            -11.2501   YZ=            -18.8568
 Octapole moment (field-independent basis, Debye-Ang**2):
  XXX=            120.6338  YYY=           -180.9264  ZZZ=            -34.7911  XYY=             20.2429
  XXY=            146.9250  XXZ=            -68.5154  XZZ=              6.5006  YZZ=             21.4827
  YYZ=             20.6194  XYZ=             21.1545
 Hexadecapole moment (field-independent basis, Debye-Ang**3):
 XXXX=         -26450.1740 YYYY=          -8943.3439 ZZZZ=          -4862.3818 XXXY=          -1649.1133
 XXXZ=             80.9098 YYYX=           -453.8070 YYYZ=           -270.0003 ZZZX=             90.2868
 ZZZY=            -60.8822 XXYY=          -6394.8441 XXZZ=          -5568.2734 YYZZ=          -2204.8913
 XXYZ=            -54.7659 YYXZ=           -224.5322 ZZXY=            -81.2255
 N-N= 9.882482021835D+03 E-N=-3.103972713264D+04  KE= 4.751215958133D+03
 No NMR shielding tensors so no spin-rotation constants.
 Leave Link  601 at Wed Mar  5 13:14:39 2025, MaxMem= 82678120448 cpu:              54.4 elap:               2.6
 (Enter /sysapps/ubuntu-applications/gaussian-new/avx/g16/l9999.exe)
 1\1\GINC-ACIDSCN002\FOpt\RMN15\Gen\C23H18F9N4O11S3Sc1\SELHAJJ1\05-Mar-
 2025\0\\#P MN15/gen scf=(maxcyc=500) opt scrf=(smd,solvent=DiChloroEth
 ane)\\Opt\\0,1\C,-5.6621727461,0.4713833234,-0.1060128442\C,-6.3644579
 122,0.4632706448,-1.3194959891\C,-7.630347454,1.0434819437,-1.41167040
 21\C,-8.207777236,1.6396020592,-0.2882225179\C,-7.5137527897,1.6555374
 043,0.9241398361\C,-6.2465573717,1.0771693533,1.0162094569\C,-1.792223
 8978,0.4612267884,0.4867279531\C,-1.2448288827,0.8398549129,-0.7742710
 878\C,-0.9471775545,-0.060748361,1.4966370359\H,-5.9077647378,-0.00255
 392,-2.197964891\H,-8.1643926424,1.0328080642,-2.3642324959\H,-9.19765
 24782,2.0960464671,-0.3583337001\H,-7.9585395456,2.1247457222,1.804352
 7243\H,-5.7140641763,1.1027357442,1.9701156978\O,0.2948271913,-0.30499
 62026,1.3245359686\O,-0.0044157207,0.8108126858,-1.050455159\O,3.09370
 07769,-1.2432154766,0.8042560041\O,2.7513831127,-0.0925214386,-1.86937
 84752\O,0.8554824024,2.3774120998,1.0580480284\S,1.6821858786,3.251665
 7085,0.1908795971\S,3.7964030541,-0.3995147743,1.8168858427\S,2.139140
 5803,-1.4262843506,-2.1567308911\O,2.4931669441,2.3322647737,-0.669010
 1827\O,2.3703489701,4.3658252058,0.7961984329\O,3.1032365102,0.9191412
 547,1.7592683751\O,4.0657527275,-0.9772869504,3.1085660599\O,1.1804945
 276,-1.6751717368,-1.0504052098\O,1.6796600064,-1.6671331711,-3.504436
 0343\C,3.5229895177,-2.6532436053,-1.8834637332\C,5.4306162552,-0.0660
 35854,1.0428378315\C,0.4644158133,4.0142826766,-1.0056431755\F,3.14156
 00726,-3.5591224108,-1.0004327633\F,4.6102610688,-2.0435141796,-1.4556
 093976\F,3.7878992735,-3.2544835094,-3.0302467871\F,5.2431128152,0.484
 0142246,-0.1435183743\F,6.0937101314,-1.2000220207,0.9083987295\F,6.11
 88851525,0.760273154,1.8092478287\F,-0.7697040545,3.8109171216,-0.5686
 842029\F,0.592615549,3.4810050454,-2.205802953\F,0.6855300302,5.313733
 8475,-1.0822251588\C,-4.2810556898,-0.1551330808,-0.0467362618\H,-3.93
 52689957,-0.2851786515,-1.0814165216\C,-4.3954297647,-1.6357977188,0.4
 756081067\C,-5.3384814905,-2.3930808753,-0.373855327\C,-4.876800294,-1
 .6500716894,1.8662625145\C,-1.2238367896,-3.554341239,1.1770165012\C,-
 1.4313248377,-2.8489532057,-1.1011977598\C,-0.6868394176,-3.5024232891
 ,-0.0918679795\H,-0.7208440361,-4.0445961418,2.0105644834\H,-1.0615602
 9,-2.7756370926,-2.1253675938\H,0.2818423925,-3.94071442,-0.3301536939
 \N,-6.0657226882,-2.9767647597,-1.0576118569\N,-5.2466187902,-1.604796
 3279,2.9614265726\N,-3.0708489793,-2.3375382198,0.3648486363\N,-2.5968
 103109,-2.2904268084,-0.8675341697\Sc,1.6890908324,0.3872981999,0.0338
 433365\C,-3.2688938471,0.704749146,0.74087432\H,-3.5147774469,1.745923
 3234,0.4788482111\H,-3.4937393769,0.6366548986,1.8141964226\C,-2.46482
 94941,-2.9463244421,1.386448607\H,-2.9675871299,-2.9488491044,2.354684
 48\C,-2.1156032502,1.3084378133,-1.9072660479\H,-2.3959807747,0.430766
 1856,-2.51529663\H,-3.0355275328,1.8151854566,-1.5896545794\H,-1.52386
 78874,1.9731808856,-2.5485669617\C,-1.4227804389,-0.3419089008,2.89675
 09414\H,-2.4890427826,-0.5670525438,3.0071611924\H,-0.8185939805,-1.15
 74411015,3.3163655031\H,-1.2119143103,0.5600468196,3.4966582173\\Versi
 on=ES64L-G16RevA.03\State=1-A\HF=-4781.7367526\RMSD=3.541e-09\RMSF=1.2
 65e-05\Dipole=-7.8124132,-4.7231158,0.7899719\Quadrupole=-2.9076657,10
 .7527529,-7.8450872,-13.8913084,-9.1238516,-13.0749851\PG=C01 [X(C23H1
 8F9N4O11S3Sc1)]\\@


0EVERYBODY IS IGNORANT, ONLY ON DIFFERENT SUBJECTS.
0          WILL ROGERS
 Job cpu time:       6 days 18 hours 22 minutes  7.6 seconds.
 Elapsed time:       0 days  8 hours  6 minutes 17.9 seconds.
 File lengths (MBytes):  RWF=   1260 Int=      0 D2E=      0 Chk=     64 Scr=      8
 Normal termination of Gaussian 16 at Wed Mar  5 13:14:39 2025.
