 Entering Gaussian System, Link 0=/sysapps/ubuntu-applications/gaussian-new/avx/g16//g16
 Input=cyclo-keto.in
 Output=cyclo-keto.log
 Initial command:
 /sysapps/ubuntu-applications/gaussian-new/avx/g16/l1.exe "/data/temp-scratch/selhajj1/7629068/Gau-268179.inp" -scrdir="/data/temp-scratch/selhajj1/7629068/"
 Entering Link 1 = /sysapps/ubuntu-applications/gaussian-new/avx/g16/l1.exe PID=    268181.
  
 Copyright (c) 1988,1990,1992,1993,1995,1998,2003,2009,2016,
            Gaussian, Inc.  All Rights Reserved.
  
 This is part of the Gaussian(R) 16 program.  It is based on
 the Gaussian(R) 09 system (copyright 2009, Gaussian, Inc.),
 the Gaussian(R) 03 system (copyright 2003, Gaussian, Inc.),
 the Gaussian(R) 98 system (copyright 1998, Gaussian, Inc.),
 the Gaussian(R) 94 system (copyright 1995, Gaussian, Inc.),
 the Gaussian 92(TM) system (copyright 1992, Gaussian, Inc.),
 the Gaussian 90(TM) system (copyright 1990, Gaussian, Inc.),
 the Gaussian 88(TM) system (copyright 1988, Gaussian, Inc.),
 the Gaussian 86(TM) system (copyright 1986, Carnegie Mellon
 University), and the Gaussian 82(TM) system (copyright 1983,
 Carnegie Mellon University). Gaussian is a federally registered
 trademark of Gaussian, Inc.
  
 This software contains proprietary and confidential information,
 including trade secrets, belonging to Gaussian, Inc.
  
 This software is provided under written license and may be
 used, copied, transmitted, or stored only in accord with that
 written license.
  
 The following legend is applicable only to US Government
 contracts under FAR:
  
                    RESTRICTED RIGHTS LEGEND
  
 Use, reproduction and disclosure by the US Government is
 subject to restrictions as set forth in subparagraphs (a)
 and (c) of the Commercial Computer Software - Restricted
 Rights clause in FAR 52.227-19.
  
 Gaussian, Inc.
 340 Quinnipiac St., Bldg. 40, Wallingford CT 06492
  
  
 ---------------------------------------------------------------
 Warning -- This program may not be used in any manner that
 competes with the business of Gaussian, Inc. or will provide
 assistance to any competitor of Gaussian, Inc.  The licensee
 of this program is prohibited from giving any competitor of
 Gaussian, Inc. access to this program.  By using this program,
 the user acknowledges that Gaussian, Inc. is engaged in the
 business of creating and licensing software in the field of
 computational chemistry and represents and warrants to the
 licensee that it is not a competitor of Gaussian, Inc. and that
 it will not use this program in any manner prohibited above.
 ---------------------------------------------------------------
  

 Cite this work as:
 Gaussian 16, Revision A.03,
 M. J. Frisch, G. W. Trucks, H. B. Schlegel, G. E. Scuseria, 
 M. A. Robb, J. R. Cheeseman, G. Scalmani, V. Barone, 
 G. A. Petersson, H. Nakatsuji, X. Li, M. Caricato, A. V. Marenich, 
 J. Bloino, B. G. Janesko, R. Gomperts, B. Mennucci, H. P. Hratchian, 
 J. V. Ortiz, A. F. Izmaylov, J. L. Sonnenberg, D. Williams-Young, 
 F. Ding, F. Lipparini, F. Egidi, J. Goings, B. Peng, A. Petrone, 
 T. Henderson, D. Ranasinghe, V. G. Zakrzewski, J. Gao, N. Rega, 
 G. Zheng, W. Liang, M. Hada, M. Ehara, K. Toyota, R. Fukuda, 
 J. Hasegawa, M. Ishida, T. Nakajima, Y. Honda, O. Kitao, H. Nakai, 
 T. Vreven, K. Throssell, J. A. Montgomery, Jr., J. E. Peralta, 
 F. Ogliaro, M. J. Bearpark, J. J. Heyd, E. N. Brothers, K. N. Kudin, 
 V. N. Staroverov, T. A. Keith, R. Kobayashi, J. Normand, 
 K. Raghavachari, A. P. Rendell, J. C. Burant, S. S. Iyengar, 
 J. Tomasi, M. Cossi, J. M. Millam, M. Klene, C. Adamo, R. Cammi, 
 J. W. Ochterski, R. L. Martin, K. Morokuma, O. Farkas, 
 J. B. Foresman, and D. J. Fox, Gaussian, Inc., Wallingford CT, 2016.
 
 ******************************************
 Gaussian 16:  ES64L-G16RevA.03 25-Dec-2016
                 3-Mar-2025 
 ******************************************
 %chk=cyclo-keto.chk
 %mem=616Gb
 %nprocshared=24
 Will use up to   24 processors via shared memory.
 ----------------------------------------------------------------------
 #P UMN15/genecp scf=(maxcyc=500) freq scrf=(smd,solvent=DiChloroEthane
 )
 ----------------------------------------------------------------------
 1/10=4,30=1,38=1/1,3;
 2/12=2,17=6,18=5,40=1/2;
 3/5=7,11=2,16=1,17=8,25=1,30=1,70=32201,71=2,72=10,74=-73,116=2,140=1/1,2,3;
 4//1;
 5/5=2,7=500,38=5,53=10,98=1/2;
 8/6=4,10=90,11=11/1;
 11/6=1,8=1,9=11,15=111,16=1/1,2,10;
 10/6=1/2;
 6/7=2,8=2,9=2,10=2,28=1/1;
 7/8=1,10=1,25=1/1,2,3,16;
 1/10=4,30=1/3;
 99//99;
 Leave Link    1 at Mon Mar  3 13:41:35 2025, MaxMem= 82678120448 cpu:               8.2 elap:               0.4
 (Enter /sysapps/ubuntu-applications/gaussian-new/avx/g16/l101.exe)
 ---
 Opt
 ---
 Symbolic Z-matrix:
 Charge =  0 Multiplicity = 2
 C                    -4.0827   -0.74526  -0.82101 
 C                    -4.55711  -0.16283  -2.0219 
 C                    -5.24261   1.02667  -1.95373 
 C                    -5.4897    1.64732  -0.68584 
 C                    -5.07316   1.04809   0.51408 
 C                    -4.38915  -0.14561   0.45569 
 C                    -3.27447  -1.9658   -0.80501 
 C                    -1.97642  -2.06142  -1.57752 
 O                    -3.13257  -2.7285   -1.97405 
 C                    -0.92073  -2.87671  -0.83758 
 C                    -1.43334  -0.97578  -2.49478 
 H                    -4.38242  -0.65971  -2.9766 
 H                    -5.60953   1.51064  -2.86012 
 H                    -6.03115   2.59513  -0.66114 
 H                    -5.2933    1.51832   1.47297 
 H                    -4.0736   -0.66895   1.3591 
 H                    -3.29001  -2.52528   0.14095 
 O                    -0.59837  -0.2025   -2.06274 
 O                     0.04233  -2.30583  -0.36547 
 Yb                    0.77524   0.14319  -0.03575 
 O                    -0.3039    2.37153  -0.48333 
 O                     0.17409  -0.98086   2.21212 
 O                     2.49921  -1.09363  -1.37761 
 S                     3.60992  -0.87677  -0.42151 
 S                     0.83254   2.95869  -1.23637 
 S                    -1.28402  -0.84438   2.03898 
 O                     3.13159  -0.055     0.7199 
 O                     4.90638  -0.5453   -0.97325 
 O                     1.83565   1.90267  -1.50816 
 O                     0.51188   3.87184  -2.31246 
 O                    -1.58565  -0.1265    0.77047 
 O                    -2.11058  -2.01546   2.29096 
 C                    -1.75573   0.38272   3.32196 
 C                     1.66799   3.97042   0.04848 
 C                     3.82651  -2.53112   0.3459 
 F                    -3.05194   0.65303   3.23085 
 F                    -1.06786   1.49779   3.13054 
 F                    -1.49543  -0.09255   4.52582 
 F                     1.97761   3.18602   1.0793 
 F                     0.86703   4.93563   0.47318 
 F                     2.77839   4.50728  -0.42915 
 F                     2.71891  -2.87951   0.98529 
 F                     4.83103  -2.50349   1.20938 
 F                     4.08665  -3.43551  -0.58774 
 C                    -1.1643   -4.34204  -0.7409 
 H                    -1.24651  -4.76593  -1.7536 
 H                    -0.34651  -4.81406  -0.18518 
 H                    -2.12441  -4.53296  -0.23542 
 C                    -1.86238  -0.9677   -3.92572 
 H                    -2.63904  -1.70616  -4.15052 
 H                    -2.19478   0.0452   -4.19677 
 H                    -0.96655  -1.18362  -4.52967 
 
 ITRead=  0  0  0  0  0  0  0  0  0  0  0  0  0  0  0  0  0  0  0  0
 ITRead=  0  0  0  0  0  0  0  0  0  0  0  0  0  0  0  0  0  0  0  0
 ITRead=  0  0  0  0  0  0  0  0  0  0  0  0
 MicOpt= -1 -1 -1 -1 -1 -1 -1 -1 -1 -1 -1 -1 -1 -1 -1 -1 -1 -1 -1 -1
 MicOpt= -1 -1 -1 -1 -1 -1 -1 -1 -1 -1 -1 -1 -1 -1 -1 -1 -1 -1 -1 -1
 MicOpt= -1 -1 -1 -1 -1 -1 -1 -1 -1 -1 -1 -1
 NAtoms=     52 NQM=       52 NQMF=       0 NMMI=      0 NMMIF=      0
                NMic=       0 NMicF=      0.
                    Isotopes and Nuclear Properties:
 (Nuclear quadrupole moments (NQMom) in fm**2, nuclear magnetic moments (NMagM)
  in nuclear magnetons)

  Atom         1           2           3           4           5           6           7           8           9          10
 IAtWgt=          12          12          12          12          12          12          12          12          16          12
 AtmWgt=  12.0000000  12.0000000  12.0000000  12.0000000  12.0000000  12.0000000  12.0000000  12.0000000  15.9949146  12.0000000
 NucSpn=           0           0           0           0           0           0           0           0           0           0
 AtZEff=  -0.0000000  -0.0000000  -0.0000000  -0.0000000  -0.0000000  -0.0000000  -0.0000000  -0.0000000  -0.0000000  -0.0000000
 NQMom=    0.0000000   0.0000000   0.0000000   0.0000000   0.0000000   0.0000000   0.0000000   0.0000000   0.0000000   0.0000000
 NMagM=    0.0000000   0.0000000   0.0000000   0.0000000   0.0000000   0.0000000   0.0000000   0.0000000   0.0000000   0.0000000
 AtZNuc=   6.0000000   6.0000000   6.0000000   6.0000000   6.0000000   6.0000000   6.0000000   6.0000000   8.0000000   6.0000000

  Atom        11          12          13          14          15          16          17          18          19          20
 IAtWgt=          12           1           1           1           1           1           1          16          16         174
 AtmWgt=  12.0000000   1.0078250   1.0078250   1.0078250   1.0078250   1.0078250   1.0078250  15.9949146  15.9949146 173.9390000
 NucSpn=           0           1           1           1           1           1           1           0           0           0
 AtZEff=  -0.0000000  -0.0000000  -0.0000000  -0.0000000  -0.0000000  -0.0000000  -0.0000000  -0.0000000  -0.0000000  -0.0000000
 NQMom=    0.0000000   0.0000000   0.0000000   0.0000000   0.0000000   0.0000000   0.0000000   0.0000000   0.0000000   0.0000000
 NMagM=    0.0000000   2.7928460   2.7928460   2.7928460   2.7928460   2.7928460   2.7928460   0.0000000   0.0000000   0.0000000
 AtZNuc=   6.0000000   1.0000000   1.0000000   1.0000000   1.0000000   1.0000000   1.0000000   8.0000000   8.0000000  70.0000000

  Atom        21          22          23          24          25          26          27          28          29          30
 IAtWgt=          16          16          16          32          32          32          16          16          16          16
 AtmWgt=  15.9949146  15.9949146  15.9949146  31.9720718  31.9720718  31.9720718  15.9949146  15.9949146  15.9949146  15.9949146
 NucSpn=           0           0           0           0           0           0           0           0           0           0
 AtZEff=  -0.0000000  -0.0000000  -0.0000000  -0.0000000  -0.0000000  -0.0000000  -0.0000000  -0.0000000  -0.0000000  -0.0000000
 NQMom=    0.0000000   0.0000000   0.0000000   0.0000000   0.0000000   0.0000000   0.0000000   0.0000000   0.0000000   0.0000000
 NMagM=    0.0000000   0.0000000   0.0000000   0.0000000   0.0000000   0.0000000   0.0000000   0.0000000   0.0000000   0.0000000
 AtZNuc=   8.0000000   8.0000000   8.0000000  16.0000000  16.0000000  16.0000000   8.0000000   8.0000000   8.0000000   8.0000000

  Atom        31          32          33          34          35          36          37          38          39          40
 IAtWgt=          16          16          12          12          12          19          19          19          19          19
 AtmWgt=  15.9949146  15.9949146  12.0000000  12.0000000  12.0000000  18.9984032  18.9984032  18.9984032  18.9984032  18.9984032
 NucSpn=           0           0           0           0           0           1           1           1           1           1
 AtZEff=  -0.0000000  -0.0000000  -0.0000000  -0.0000000  -0.0000000  -0.0000000  -0.0000000  -0.0000000  -0.0000000  -0.0000000
 NQMom=    0.0000000   0.0000000   0.0000000   0.0000000   0.0000000   0.0000000   0.0000000   0.0000000   0.0000000   0.0000000
 NMagM=    0.0000000   0.0000000   0.0000000   0.0000000   0.0000000   2.6288670   2.6288670   2.6288670   2.6288670   2.6288670
 AtZNuc=   8.0000000   8.0000000   6.0000000   6.0000000   6.0000000   9.0000000   9.0000000   9.0000000   9.0000000   9.0000000

  Atom        41          42          43          44          45          46          47          48          49          50
 IAtWgt=          19          19          19          19          12           1           1           1          12           1
 AtmWgt=  18.9984032  18.9984032  18.9984032  18.9984032  12.0000000   1.0078250   1.0078250   1.0078250  12.0000000   1.0078250
 NucSpn=           1           1           1           1           0           1           1           1           0           1
 AtZEff=  -0.0000000  -0.0000000  -0.0000000  -0.0000000  -0.0000000  -0.0000000  -0.0000000  -0.0000000  -0.0000000  -0.0000000
 NQMom=    0.0000000   0.0000000   0.0000000   0.0000000   0.0000000   0.0000000   0.0000000   0.0000000   0.0000000   0.0000000
 NMagM=    2.6288670   2.6288670   2.6288670   2.6288670   0.0000000   2.7928460   2.7928460   2.7928460   0.0000000   2.7928460
 AtZNuc=   9.0000000   9.0000000   9.0000000   9.0000000   6.0000000   1.0000000   1.0000000   1.0000000   6.0000000   1.0000000

  Atom        51          52
 IAtWgt=           1           1
 AtmWgt=   1.0078250   1.0078250
 NucSpn=           1           1
 AtZEff=  -0.0000000  -0.0000000
 NQMom=    0.0000000   0.0000000
 NMagM=    2.7928460   2.7928460
 AtZNuc=   1.0000000   1.0000000
 Leave Link  101 at Mon Mar  3 13:41:35 2025, MaxMem= 82678120448 cpu:               4.7 elap:               0.2
 (Enter /sysapps/ubuntu-applications/gaussian-new/avx/g16/l103.exe)

 GradGradGradGradGradGradGradGradGradGradGradGradGradGradGradGradGradGrad
 Berny optimization.
 Initialization pass.
 Trust Radius=3.00D-01 FncErr=1.00D-07 GrdErr=1.00D-07 EigMax=2.50D+02 EigMin=1.00D-04
 Number of steps in this run=      2 maximum allowed number of steps=      2.
 GradGradGradGradGradGradGradGradGradGradGradGradGradGradGradGradGradGrad

 Leave Link  103 at Mon Mar  3 13:41:35 2025, MaxMem= 82678120448 cpu:               0.7 elap:               0.0
 (Enter /sysapps/ubuntu-applications/gaussian-new/avx/g16/l202.exe)
 Stoichiometry    C15H12F9O12S3Yb(2)
 Framework group  C1[X(C15H12F9O12S3Yb)]
 Deg. of freedom   150
 Full point group                 C1      NOp   1
 Largest Abelian subgroup         C1      NOp   1
 Largest concise Abelian subgroup C1      NOp   1
                         Standard orientation:                         
 ---------------------------------------------------------------------
 Center     Atomic      Atomic             Coordinates (Angstroms)
 Number     Number       Type             X           Y           Z
 ---------------------------------------------------------------------
      1          6           0       -4.082704   -0.745258   -0.821005
      2          6           0       -4.557109   -0.162833   -2.021895
      3          6           0       -5.242611    1.026674   -1.953725
      4          6           0       -5.489703    1.647319   -0.685842
      5          6           0       -5.073159    1.048090    0.514076
      6          6           0       -4.389152   -0.145606    0.455689
      7          6           0       -3.274471   -1.965796   -0.805009
      8          6           0       -1.976421   -2.061420   -1.577523
      9          8           0       -3.132568   -2.728495   -1.974049
     10          6           0       -0.920727   -2.876712   -0.837584
     11          6           0       -1.433335   -0.975778   -2.494777
     12          1           0       -4.382424   -0.659711   -2.976601
     13          1           0       -5.609528    1.510643   -2.860119
     14          1           0       -6.031151    2.595134   -0.661144
     15          1           0       -5.293297    1.518318    1.472966
     16          1           0       -4.073599   -0.668949    1.359097
     17          1           0       -3.290012   -2.525279    0.140953
     18          8           0       -0.598369   -0.202499   -2.062737
     19          8           0        0.042333   -2.305827   -0.365467
     20         70           0        0.775236    0.143187   -0.035754
     21          8           0       -0.303899    2.371530   -0.483331
     22          8           0        0.174085   -0.980862    2.212119
     23          8           0        2.499211   -1.093626   -1.377609
     24         16           0        3.609924   -0.876771   -0.421513
     25         16           0        0.832540    2.958690   -1.236366
     26         16           0       -1.284018   -0.844382    2.038984
     27          8           0        3.131588   -0.054999    0.719899
     28          8           0        4.906383   -0.545302   -0.973251
     29          8           0        1.835646    1.902668   -1.508162
     30          8           0        0.511876    3.871843   -2.312463
     31          8           0       -1.585652   -0.126496    0.770467
     32          8           0       -2.110584   -2.015464    2.290963
     33          6           0       -1.755726    0.382719    3.321961
     34          6           0        1.667989    3.970424    0.048484
     35          6           0        3.826511   -2.531117    0.345899
     36          9           0       -3.051939    0.653028    3.230853
     37          9           0       -1.067856    1.497789    3.130543
     38          9           0       -1.495433   -0.092554    4.525815
     39          9           0        1.977612    3.186023    1.079298
     40          9           0        0.867026    4.935627    0.473182
     41          9           0        2.778391    4.507281   -0.429145
     42          9           0        2.718910   -2.879514    0.985294
     43          9           0        4.831026   -2.503492    1.209375
     44          9           0        4.086654   -3.435510   -0.587736
     45          6           0       -1.164301   -4.342037   -0.740897
     46          1           0       -1.246507   -4.765933   -1.753598
     47          1           0       -0.346506   -4.814059   -0.185184
     48          1           0       -2.124412   -4.532960   -0.235416
     49          6           0       -1.862384   -0.967703   -3.925724
     50          1           0       -2.639038   -1.706164   -4.150515
     51          1           0       -2.194785    0.045203   -4.196769
     52          1           0       -0.966546   -1.183619   -4.529670
 ---------------------------------------------------------------------
 Rotational constants (GHZ):           0.0893591           0.0676730           0.0574877
 Leave Link  202 at Mon Mar  3 13:41:35 2025, MaxMem= 82678120448 cpu:               0.8 elap:               0.0
 (Enter /sysapps/ubuntu-applications/gaussian-new/avx/g16/l301.exe)
 General basis read from cards:  (5D, 7F)
 Centers:      12     13     14     15     16     17     46     47     48     50
 Centers:      51     52
 S 3 1.00
     Exponent=  1.3010701000D+01 Coefficients=  1.9682158000D-02
     Exponent=  1.9622572000D+00 Coefficients=  1.3796524000D-01
     Exponent=  4.4453796000D-01 Coefficients=  4.7831935000D-01
 S 1 1.00
     Exponent=  1.2194962000D-01 Coefficients=  1.0000000000D+00
 P 1 1.00
     Exponent=  8.0000000000D-01 Coefficients=  1.0000000000D+00
 ****
 Centers:       1      2      3      4      5      6      7      8     10     11
 Centers:      33     34     35     45     49
 S 5 1.00
     Exponent=  1.2384016938D+03 Coefficients=  5.4568832082D-03
     Exponent=  1.8629004992D+02 Coefficients=  4.0638409211D-02
     Exponent=  4.2251176346D+01 Coefficients=  1.8025593888D-01
     Exponent=  1.1676557932D+01 Coefficients=  4.6315121755D-01
     Exponent=  3.5930506482D+00 Coefficients=  4.4087173314D-01
 S 1 1.00
     Exponent=  4.0245147363D-01 Coefficients=  1.0000000000D+00
 S 1 1.00
     Exponent=  1.3090182668D-01 Coefficients=  1.0000000000D+00
 P 3 1.00
     Exponent=  9.4680970621D+00 Coefficients=  3.8387871728D-02
     Exponent=  2.0103545142D+00 Coefficients=  2.1117025112D-01
     Exponent=  5.4771004707D-01 Coefficients=  5.1328172114D-01
 P 1 1.00
     Exponent=  1.5268613795D-01 Coefficients=  1.0000000000D+00
 D 1 1.00
     Exponent=  8.0000000000D-01 Coefficients=  1.0000000000D+00
 ****
 Centers:       9     18     19     21     22     23     27     28     29     30
 Centers:      31     32
 S 5 1.00
     Exponent=  2.2661767785D+03 Coefficients= -5.3431809926D-03
     Exponent=  3.4087010191D+02 Coefficients= -3.9890039230D-02
     Exponent=  7.7363135167D+01 Coefficients= -1.7853911985D-01
     Exponent=  2.1479644940D+01 Coefficients= -4.6427684959D-01
     Exponent=  6.6589433124D+00 Coefficients= -4.4309745172D-01
 S 1 1.00
     Exponent=  8.0975975668D-01 Coefficients=  1.0000000000D+00
 S 1 1.00
     Exponent=  2.5530772234D-01 Coefficients=  1.0000000000D+00
 P 3 1.00
     Exponent=  1.7721504317D+01 Coefficients=  4.3394573193D-02
     Exponent=  3.8635505440D+00 Coefficients=  2.3094120765D-01
     Exponent=  1.0480920883D+00 Coefficients=  5.1375311064D-01
 P 1 1.00
     Exponent=  2.7641544411D-01 Coefficients=  1.0000000000D+00
 D 1 1.00
     Exponent=  1.2000000000D+00 Coefficients=  1.0000000000D+00
 ****
 Centers:      36     37     38     39     40     41     42     43     44
 S 5 1.00
     Exponent=  2.8948325990D+03 Coefficients= -5.3408255515D-03
     Exponent=  4.3541939120D+02 Coefficients= -3.9904258866D-02
     Exponent=  9.8843328866D+01 Coefficients= -1.7912768038D-01
     Exponent=  2.7485198001D+01 Coefficients= -4.6758090825D-01
     Exponent=  8.5405498171D+00 Coefficients= -4.4653131020D-01
 S 1 1.00
     Exponent=  1.0654578038D+00 Coefficients=  1.0000000000D+00
 S 1 1.00
     Exponent=  3.3247346748D-01 Coefficients=  1.0000000000D+00
 P 3 1.00
     Exponent=  2.2696633924D+01 Coefficients= -4.5212874436D-02
     Exponent=  4.9872339257D+00 Coefficients= -2.3754317067D-01
     Exponent=  1.3491613954D+00 Coefficients= -5.1287353587D-01
 P 1 1.00
     Exponent=  3.4829881977D-01 Coefficients=  1.0000000000D+00
 D 1 1.00
     Exponent=  1.4000000000D+00 Coefficients=  1.0000000000D+00
 ****
 Centers:      24     25     26
 S 5 1.00
     Exponent=  9.1849303010D+03 Coefficients= -2.2294387756D-03
     Exponent=  1.3815105503D+03 Coefficients= -1.6683029937D-02
     Exponent=  3.1387147580D+02 Coefficients= -7.5262436116D-02
     Exponent=  8.8053870623D+01 Coefficients= -1.9376827038D-01
     Exponent=  2.7039914905D+01 Coefficients= -1.7718020803D-01
 S 3 1.00
     Exponent=  4.5648731303D+01 Coefficients= -1.0736062573D-01
     Exponent=  4.9664522326D+00 Coefficients=  6.5066293018D-01
     Exponent=  2.0116242047D+00 Coefficients=  5.9712155354D-01
 S 1 1.00
     Exponent=  3.5661077013D-01 Coefficients=  1.0000000000D+00
 S 1 1.00
     Exponent=  1.3507221477D-01 Coefficients=  1.0000000000D+00
 P 5 1.00
     Exponent=  2.6198233439D+02 Coefficients= -9.2729929822D-03
     Exponent=  6.1306894736D+01 Coefficients= -6.6547669241D-02
     Exponent=  1.9103729887D+01 Coefficients= -2.4828595903D-01
     Exponent=  6.6567720378D+00 Coefficients= -4.8703847402D-01
     Exponent=  2.3959635161D+00 Coefficients= -3.9337850312D-01
 P 1 1.00
     Exponent=  6.1776161679D-01 Coefficients=  1.0000000000D+00
 P 1 1.00
     Exponent=  1.6993376871D-01 Coefficients=  1.0000000000D+00
 D 1 1.00
     Exponent=  5.5000000000D-01 Coefficients=  1.0000000000D+00
 ****
 Centers:      20
 S 5 1.00
     Exponent=  9.1972903000D+04 Coefficients=  5.1000000000D-05
     Exponent=  1.3787371000D+04 Coefficients=  3.8600000000D-04
     Exponent=  3.1236135000D+03 Coefficients=  1.8440000000D-03
     Exponent=  8.7147540000D+02 Coefficients=  5.3560000000D-03
     Exponent=  2.5046300000D+02 Coefficients=  8.8590000000D-03
 S 1 1.00
     Exponent=  5.8282700000D+01 Coefficients=  1.0000000000D+00
 S 1 1.00
     Exponent=  4.1630500000D+01 Coefficients=  1.0000000000D+00
 S 1 1.00
     Exponent=  2.0216400000D+01 Coefficients=  1.0000000000D+00
 S 1 1.00
     Exponent=  4.9972000000D+00 Coefficients=  1.0000000000D+00
 S 1 1.00
     Exponent=  2.4822000000D+00 Coefficients=  1.0000000000D+00
 S 1 1.00
     Exponent=  9.1790000000D-01 Coefficients=  1.0000000000D+00
 S 1 1.00
     Exponent=  3.8530000000D-01 Coefficients=  1.0000000000D+00
 S 1 1.00
     Exponent=  6.1400000000D-02 Coefficients=  1.0000000000D+00
 S 1 1.00
     Exponent=  2.5000000000D-02 Coefficients=  1.0000000000D+00
 P 3 1.00
     Exponent=  1.2274108000D+01 Coefficients= -1.5252141000D-01
     Exponent=  1.0695631000D+01 Coefficients= -2.0243492000D-01
     Exponent=  2.0359782000D+00 Coefficients= -1.9621046000D-01
 P 6 1.00
     Exponent=  1.4975567000D+03 Coefficients= -1.0182934000D-03
     Exponent=  3.7504101000D+02 Coefficients= -6.0919401000D-03
     Exponent=  1.2869727000D+02 Coefficients= -1.7077693000D-02
     Exponent=  4.5270759000D+01 Coefficients= -3.5655508000D-02
     Exponent=  1.4906971000D+01 Coefficients=  2.3732226000D-01
     Exponent=  5.6450858000D+00 Coefficients= -3.0559689000D-01
 P 1 1.00
     Exponent=  3.6752106000D+00 Coefficients=  1.0000000000D+00
 P 1 1.00
     Exponent=  1.3296961000D+00 Coefficients=  1.0000000000D+00
 P 1 1.00
     Exponent=  5.5338966000D-01 Coefficients=  1.0000000000D+00
 P 1 1.00
     Exponent=  2.2382350000D-01 Coefficients=  1.0000000000D+00
 P 1 1.00
     Exponent=  6.8350467650D-02 Coefficients=  1.0000000000D+00
 P 1 1.00
     Exponent=  2.5355670803D-02 Coefficients=  1.0000000000D+00
 D 6 1.00
     Exponent=  4.6976060000D+02 Coefficients=  1.9840000000D-03
     Exponent=  1.4261280000D+02 Coefficients=  1.6013000000D-02
     Exponent=  5.5126700000D+01 Coefficients=  6.3153000000D-02
     Exponent=  2.3441500000D+01 Coefficients=  1.3780000000D-01
     Exponent=  9.4951000000D+00 Coefficients=  2.8549800000D-01
     Exponent=  4.5792000000D+00 Coefficients=  4.3830900000D-01
 D 1 1.00
     Exponent=  2.1646000000D+00 Coefficients=  1.0000000000D+00
 D 1 1.00
     Exponent=  9.2380000000D-01 Coefficients=  1.0000000000D+00
 D 1 1.00
     Exponent=  3.1070000000D-01 Coefficients=  1.0000000000D+00
 D 1 1.00
     Exponent=  9.1400000000D-02 Coefficients=  1.0000000000D+00
 F 5 1.00
     Exponent=  1.4202930000D+02 Coefficients=  5.9570000000D-03
     Exponent=  5.1086200000D+01 Coefficients=  5.3180000000D-02
     Exponent=  2.2874100000D+01 Coefficients=  1.7807600000D-01
     Exponent=  1.0502500000D+01 Coefficients=  3.0060000000D-01
     Exponent=  4.7872000000D+00 Coefficients=  3.5034200000D-01
 F 1 1.00
     Exponent=  2.1088000000D+00 Coefficients=  1.0000000000D+00
 F 1 1.00
     Exponent=  8.6090000000D-01 Coefficients=  1.0000000000D+00
 F 1 1.00
     Exponent=  3.0600000000D-01 Coefficients=  1.0000000000D+00
 G 1 1.00
     Exponent=  5.1330000000D-01 Coefficients=  1.0000000000D+00
 ****
 ======================================================================================================
                                       Pseudopotential Parameters
 ======================================================================================================
  Center     Atomic      Valence      Angular      Power
  Number     Number     Electrons     Momentum     of R      Exponent        Coefficient   SO-Coeffient
 ======================================================================================================
    1          6
                                   No pseudopotential on this center.
    2          6
                                   No pseudopotential on this center.
    3          6
                                   No pseudopotential on this center.
    4          6
                                   No pseudopotential on this center.
    5          6
                                   No pseudopotential on this center.
    6          6
                                   No pseudopotential on this center.
    7          6
                                   No pseudopotential on this center.
    8          6
                                   No pseudopotential on this center.
    9          8
                                   No pseudopotential on this center.
   10          6
                                   No pseudopotential on this center.
   11          6
                                   No pseudopotential on this center.
   12          1
                                   No pseudopotential on this center.
   13          1
                                   No pseudopotential on this center.
   14          1
                                   No pseudopotential on this center.
   15          1
                                   No pseudopotential on this center.
   16          1
                                   No pseudopotential on this center.
   17          1
                                   No pseudopotential on this center.
   18          8
                                   No pseudopotential on this center.
   19          8
                                   No pseudopotential on this center.
   20         70           42
                                      H and up 
                                                     2        1.0000000        0.00000000    0.00000000
                                      S - H
                                                     2       32.4244840      891.01377700    0.00000000
                                      P - H
                                                     2       18.6562320      264.03695300    0.00000000
                                      D - H
                                                     2       10.4902220       73.92391900    0.00000000
                                      F - H
                                                     2       20.7741830      -39.59217300    0.00000000
                                      G - H
                                                     2       28.4310280      -34.63863800    0.00000000
   21          8
                                   No pseudopotential on this center.
   22          8
                                   No pseudopotential on this center.
   23          8
                                   No pseudopotential on this center.
   24         16
                                   No pseudopotential on this center.
   25         16
                                   No pseudopotential on this center.
   26         16
                                   No pseudopotential on this center.
   27          8
                                   No pseudopotential on this center.
   28          8
                                   No pseudopotential on this center.
   29          8
                                   No pseudopotential on this center.
   30          8
                                   No pseudopotential on this center.
   31          8
                                   No pseudopotential on this center.
   32          8
                                   No pseudopotential on this center.
   33          6
                                   No pseudopotential on this center.
   34          6
                                   No pseudopotential on this center.
   35          6
                                   No pseudopotential on this center.
   36          9
                                   No pseudopotential on this center.
   37          9
                                   No pseudopotential on this center.
   38          9
                                   No pseudopotential on this center.
   39          9
                                   No pseudopotential on this center.
   40          9
                                   No pseudopotential on this center.
   41          9
                                   No pseudopotential on this center.
   42          9
                                   No pseudopotential on this center.
   43          9
                                   No pseudopotential on this center.
   44          9
                                   No pseudopotential on this center.
   45          6
                                   No pseudopotential on this center.
   46          1
                                   No pseudopotential on this center.
   47          1
                                   No pseudopotential on this center.
   48          1
                                   No pseudopotential on this center.
   49          6
                                   No pseudopotential on this center.
   50          1
                                   No pseudopotential on this center.
   51          1
                                   No pseudopotential on this center.
   52          1
                                   No pseudopotential on this center.
 ======================================================================================================
 Ernie: Thresh=  0.10000D-02 Tol=  0.10000D-05 Strict=F.
 There are   776 symmetry adapted cartesian basis functions of A   symmetry.
 There are   714 symmetry adapted basis functions of A   symmetry.
   714 basis functions,  1309 primitive gaussians,   776 cartesian basis functions
   185 alpha electrons      184 beta electrons
       nuclear repulsion energy      8194.9367712468 Hartrees.
 IExCor= 7252 DFT=T Ex+Corr=MN15 ExCW=0 ScaHFX=  0.440000
 ScaDFX=  1.000000  1.000000  1.000000  1.000000 ScalE2=  1.000000  1.000000
 IRadAn=      5 IRanWt=     -1 IRanGd=            0 ICorTp=0 IEmpDi=  4
 NAtoms=   52 NActive=   52 NUniq=   52 SFac= 1.00D+00 NAtFMM=   60 NAOKFM=F Big=F
 Integral buffers will be    131072 words long.
 Raffenetti 2 integral format.
 Two-electron integral symmetry is turned on.
 Force inversion solution in PCM.
 ------------------------------------------------------------------------------
 Polarizable Continuum Model (PCM)
 =================================
 Model                : PCM.
 Atomic radii         : SMD-Coulomb.
 Polarization charges : Total charges.
 Charge compensation  : None.
 Solution method      : Matrix inversion.
 Cavity type          : VdW (van der Waals Surface) (Alpha=1.000).
 Cavity algorithm     : GePol (No added spheres)
                        Default sphere list used, NSphG=   52.
                        Lebedev-Laikov grids with approx.  5.0 points / Ang**2.
                        Smoothing algorithm: York/Karplus (Gamma=1.0000).
                        Polarization charges: spherical gaussians, with
                                              point-specific exponents (IZeta= 3).
                        Self-potential: point-specific (ISelfS= 7).
                        Self-field    : sphere-specific E.n sum rule (ISelfD= 2).
 1st derivatives      : Analytical E(r).r(x)/FMM algorithm (CHGder, D1EAlg=3).
                        Cavity 1st derivative terms included.
 2nd derivatives      : Analytical E(r).r(xy)/FMM algorithm (CHGder, D2EAlg=3).
                        Cavity 2nd derivative terms included.
 Solvent              : DiChloroEthane, Eps=  10.125000 Eps(inf)=   2.087447
 ------------------------------------------------------------------------------
 GePol: Number of generator spheres                  =      52
 GePol: Total number of spheres                      =      52
 GePol: Number of exposed spheres                    =      52 (100.00%)
 GePol: Number of points                             =    3831
 GePol: Average weight of points                     =       0.14
 GePol: Minimum weight of points                     =   0.25D-10
 GePol: Maximum weight of points                     =    0.21501
 GePol: Number of points with low weight             =     223
 GePol: Fraction of low-weight points (<1% of avg)   =       5.82%
 GePol: Cavity surface area                          =    525.973 Ang**2
 GePol: Cavity volume                                =    618.770 Ang**3
 ------------------------------------------------------------------------------
 Atomic radii for non-electrostatic terms: SMD-CDS.
 ------------------------------------------------------------------------------
 PCM non-electrostatic energy =         0.0012624608 Hartrees.
 Nuclear repulsion after PCM non-electrostatic terms =     8194.9380337076 Hartrees.
 Leave Link  301 at Mon Mar  3 13:41:35 2025, MaxMem= 82678120448 cpu:               4.1 elap:               0.2
 (Enter /sysapps/ubuntu-applications/gaussian-new/avx/g16/l302.exe)
 NPDir=0 NMtPBC=     1 NCelOv=     1 NCel=       1 NClECP=     1 NCelD=      1
         NCelK=      1 NCelE2=     1 NClLst=     1 CellRange=     0.0.
 One-electron integrals computed using PRISM.
 One-electron integral symmetry used in STVInt
   1 Symmetry operations used in ECPInt.
 ECPInt:  NShTT=   46360 NPrTT=  177341 LenC2=   37834 LenP2D=   89088.
 LDataN:  DoStor=T MaxTD1= 9 Len=  602
 NBasis=   714 RedAO= T EigKep=  3.06D-04  NBF=   714
 NBsUse=   714 1.00D-06 EigRej= -1.00D+00 NBFU=   714
 Precomputing XC quadrature grid using
 IXCGrd= 4 IRadAn=           5 IRanWt=          -1 IRanGd=           0 AccXCQ= 0.00D+00.
 Defaulting to unpruned grid for atomic number  70.
 Generated NRdTot=       0 NPtTot=           0 NUsed=           0 NTot=          32
 NSgBfM=   748   748   748   748   748 MxSgAt=    52 MxSgA2=    52.
 Leave Link  302 at Mon Mar  3 13:41:37 2025, MaxMem= 82678120448 cpu:              38.5 elap:               1.6
 (Enter /sysapps/ubuntu-applications/gaussian-new/avx/g16/l303.exe)
 DipDrv:  MaxL=1.
 Leave Link  303 at Mon Mar  3 13:41:37 2025, MaxMem= 82678120448 cpu:               3.2 elap:               0.2
 (Enter /sysapps/ubuntu-applications/gaussian-new/avx/g16/l401.exe)
 ExpMin= 2.50D-02 ExpMax= 9.20D+04 ExpMxC= 1.38D+04 IAcc=3 IRadAn=         5 AccDes= 0.00D+00
 Harris functional with IExCor= 1009 and IRadAn=       5 diagonalized for initial guess.
 HarFok:  IExCor= 1009 AccDes= 0.00D+00 IRadAn=         5 IDoV= 1 UseB2=F ITyADJ=14
 ICtDFT=  3500011 ScaDFX=  1.000000  1.000000  1.000000  1.000000
 Defaulting to unpruned grid for atomic number  70.
 FoFCou: FMM=F IPFlag=           0 FMFlag=      100000 FMFlg1=           0
         NFxFlg=           0 DoJE=T BraDBF=F KetDBF=T FulRan=T
         wScrn=  0.000000 ICntrl=       500 IOpCl=  0 I1Cent=   200000004 NGrid=           0
         NMat0=    1 NMatS0=      1 NMatT0=    0 NMatD0=    1 NMtDS0=    0 NMtDT0=    0
 Petite list used in FoFCou.
 Harris En= -4732.18977626278    
 JPrj=0 DoOrth=F DoCkMO=F.
 Initial guess <Sx>= 0.0000 <Sy>= 0.0000 <Sz>= 0.5000 <S**2>= 0.7500 S= 0.5000
 Leave Link  401 at Mon Mar  3 13:41:40 2025, MaxMem= 82678120448 cpu:              86.0 elap:               3.6
 (Enter /sysapps/ubuntu-applications/gaussian-new/avx/g16/l502.exe)
 Integral symmetry usage will be decided dynamically.
 UHF open shell SCF:
 Using DIIS extrapolation, IDIIS=  1040.
 NGot= 82678120448 LenX= 82676889598 LenY= 82676286646
 Requested convergence on RMS density matrix=1.00D-08 within 500 cycles.
 Requested convergence on MAX density matrix=1.00D-06.
 Requested convergence on             energy=1.00D-06.
 No special actions if energy rises.
 Fock matrices will be formed incrementally for  20 cycles.

 Cycle   1  Pass 1  IDiag  1:
 FoFJK:  IHMeth= 1 ICntrl=       0 DoSepK=F KAlg= 0 I1Cent=           0 FoldK=F
 IRaf= 730000000 NMat=       1 IRICut=       1 DoRegI=T DoRafI=F ISym2E= 0 IDoP0=0 IntGTp=1.
 FoFCou: FMM=F IPFlag=           0 FMFlag=      100000 FMFlg1=           0
         NFxFlg=           0 DoJE=F BraDBF=F KetDBF=F FulRan=T
         wScrn=  0.000000 ICntrl=         0 IOpCl=  1 I1Cent=           0 NGrid=           0
         NMat0=    1 NMatS0=      1 NMatT0=    0 NMatD0=    1 NMtDS0=    0 NMtDT0=    0
 Symmetry not used in FoFCou.
 Defaulting to unpruned grid for atomic number  70.
 Defaulting to unpruned grid for atomic number  70.
 Defaulting to unpruned grid for atomic number  70.
 Defaulting to unpruned grid for atomic number  70.
 Defaulting to unpruned grid for atomic number  70.
 Defaulting to unpruned grid for atomic number  70.
 Defaulting to unpruned grid for atomic number  70.
 Defaulting to unpruned grid for atomic number  70.
 Defaulting to unpruned grid for atomic number  70.
 Defaulting to unpruned grid for atomic number  70.
 Defaulting to unpruned grid for atomic number  70.
 Defaulting to unpruned grid for atomic number  70.
 Defaulting to unpruned grid for atomic number  70.
 Defaulting to unpruned grid for atomic number  70.
 Defaulting to unpruned grid for atomic number  70.
 Defaulting to unpruned grid for atomic number  70.
 Defaulting to unpruned grid for atomic number  70.
 Defaulting to unpruned grid for atomic number  70.
 Defaulting to unpruned grid for atomic number  70.
 Defaulting to unpruned grid for atomic number  70.
 Defaulting to unpruned grid for atomic number  70.
 Defaulting to unpruned grid for atomic number  70.
 Defaulting to unpruned grid for atomic number  70.
 Defaulting to unpruned grid for atomic number  70.
 Inv3:  Mode=1 IEnd=    44029683.
 Iteration    1 A*A^-1 deviation from unit magnitude is 1.11D-14 for   3823.
 Iteration    1 A*A^-1 deviation from orthogonality  is 3.71D-15 for   3790   2801.
 Iteration    1 A^-1*A deviation from unit magnitude is 1.11D-14 for   3823.
 Iteration    1 A^-1*A deviation from orthogonality  is 4.79D-15 for   3816   2629.
 E= -4726.62518494920    
 DIIS: error= 2.76D-01 at cycle   1 NSaved=   1.
 NSaved= 1 IEnMin= 1 EnMin= -4726.62518494920     IErMin= 1 ErrMin= 2.76D-01
 ErrMax= 2.76D-01  0.00D+00 EMaxC= 1.00D-01 BMatC= 1.37D+02 BMatP= 1.37D+02
 IDIUse=3 WtCom= 0.00D+00 WtEn= 1.00D+00
 Coeff-Com:  0.100D+01
 Coeff-En:   0.100D+01
 Coeff:      0.100D+01
 Gap=     0.462 Goal=   None    Shift=    0.000
 Gap=    -0.024 Goal=   None    Shift=    0.000
 GapD=   -0.024 DampG=0.250 DampE=0.125 DampFc=0.1250 IDamp=-1.
 Damping current iteration by 1.25D-01
 RMSDP=1.13D-02 MaxDP=1.00D+00              OVMax= 9.89D-01

 Cycle   2  Pass 1  IDiag  1:
 RMSU=  1.41D-03    CP:  9.91D-01
 E= -4728.01258249080     Delta-E=       -1.387397541597 Rises=F Damp=T
 DIIS: error= 1.10D-01 at cycle   2 NSaved=   2.
 NSaved= 2 IEnMin= 2 EnMin= -4728.01258249080     IErMin= 2 ErrMin= 1.10D-01
 ErrMax= 1.10D-01  0.00D+00 EMaxC= 1.00D-01 BMatC= 2.66D+01 BMatP= 1.37D+02
 IDIUse=3 WtCom= 0.00D+00 WtEn= 1.00D+00
 Coeff-Com: -0.614D+00 0.161D+01
 Coeff-En:   0.241D+00 0.759D+00
 Coeff:      0.241D+00 0.759D+00
 Gap=     0.053 Goal=   None    Shift=    0.000
 Gap=    -0.009 Goal=   None    Shift=    0.000
 RMSDP=3.59D-03 MaxDP=5.76D-01 DE=-1.39D+00 OVMax= 9.72D-01

 Cycle   3  Pass 1  IDiag  1:
 RMSU=  3.55D-03    CP:  9.63D-01  1.17D+00
 E= -4726.91189436822     Delta-E=        1.100688122579 Rises=F Damp=F
 DIIS: error= 2.44D-01 at cycle   3 NSaved=   3.
 NSaved= 3 IEnMin= 2 EnMin= -4728.01258249080     IErMin= 2 ErrMin= 1.10D-01
 ErrMax= 2.44D-01  0.00D+00 EMaxC= 1.00D-01 BMatC= 1.27D+02 BMatP= 2.66D+01
 IDIUse=2 WtCom= 0.00D+00 WtEn= 1.00D+00
 EnCoef did   100 forward-backward iterations
 Coeff-En:   0.471D+00 0.280D-01 0.501D+00
 Coeff:      0.471D+00 0.280D-01 0.501D+00
 Gap=     0.555 Goal=   None    Shift=    0.000
 Gap=     0.066 Goal=   None    Shift=    0.000
 RMSDP=3.10D-03 MaxDP=2.53D-01 DE= 1.10D+00 OVMax= 9.85D-01

 Cycle   4  Pass 1  IDiag  1:
 RMSU=  2.26D-03    CP:  9.71D-01  8.65D-01  4.14D-01
 E= -4728.09615665130     Delta-E=       -1.184262283079 Rises=F Damp=F
 DIIS: error= 1.21D-01 at cycle   4 NSaved=   4.
 NSaved= 4 IEnMin= 4 EnMin= -4728.09615665130     IErMin= 2 ErrMin= 1.10D-01
 ErrMax= 1.21D-01  0.00D+00 EMaxC= 1.00D-01 BMatC= 4.38D+01 BMatP= 2.66D+01
 IDIUse=2 WtCom= 0.00D+00 WtEn= 1.00D+00
 EnCoef did   100 forward-backward iterations
 Coeff-En:   0.407D+00 0.582D-02 0.225D+00 0.362D+00
 Coeff:      0.407D+00 0.582D-02 0.225D+00 0.362D+00
 Gap=     0.115 Goal=   None    Shift=    0.000
 Gap=     0.056 Goal=   None    Shift=    0.000
 RMSDP=2.43D-03 MaxDP=3.83D-01 DE=-1.18D+00 OVMax= 9.12D-01

 Cycle   5  Pass 1  IDiag  1:
 RMSU=  7.58D-04    CP:  9.81D-01  6.48D-01  6.28D-01  4.43D-02
 E= -4730.80686485418     Delta-E=       -2.710708202878 Rises=F Damp=F
 DIIS: error= 5.52D-02 at cycle   5 NSaved=   5.
 NSaved= 5 IEnMin= 5 EnMin= -4730.80686485418     IErMin= 5 ErrMin= 5.52D-02
 ErrMax= 5.52D-02  0.00D+00 EMaxC= 1.00D-01 BMatC= 9.10D+00 BMatP= 2.66D+01
 IDIUse=3 WtCom= 4.48D-01 WtEn= 5.52D-01
 Coeff-Com: -0.149D+00 0.458D+00 0.126D+00 0.556D-01 0.510D+00
 Coeff-En:   0.000D+00 0.000D+00 0.000D+00 0.257D+00 0.743D+00
 Coeff:     -0.670D-01 0.205D+00 0.565D-01 0.167D+00 0.639D+00
 Gap=     0.273 Goal=   None    Shift=    0.000
 Gap=     0.087 Goal=   None    Shift=    0.000
 RMSDP=1.06D-03 MaxDP=1.05D-01 DE=-2.71D+00 OVMax= 7.04D-02

 Cycle   6  Pass 1  IDiag  1:
 RMSU=  8.07D-04    CP:  9.78D-01  5.01D-01  4.79D-01  1.78D-01  6.95D-01
 E= -4731.26396218540     Delta-E=       -0.457097331220 Rises=F Damp=F
 DIIS: error= 2.07D-02 at cycle   6 NSaved=   6.
 NSaved= 6 IEnMin= 6 EnMin= -4731.26396218540     IErMin= 6 ErrMin= 2.07D-02
 ErrMax= 2.07D-02  0.00D+00 EMaxC= 1.00D-01 BMatC= 1.81D+00 BMatP= 9.10D+00
 IDIUse=3 WtCom= 7.93D-01 WtEn= 2.07D-01
 EnCoef did     5 forward-backward iterations
 Coeff-Com: -0.193D+00 0.366D+00 0.553D-01 0.172D-01 0.279D+00 0.475D+00
 Coeff-En:   0.000D+00 0.000D+00 0.000D+00 0.106D+00 0.188D-01 0.875D+00
 Coeff:     -0.153D+00 0.290D+00 0.439D-01 0.356D-01 0.225D+00 0.558D+00
 Gap=     0.243 Goal=   None    Shift=    0.000
 Gap=     0.093 Goal=   None    Shift=    0.000
 RMSDP=4.86D-04 MaxDP=5.47D-02 DE=-4.57D-01 OVMax= 4.38D-02

 Cycle   7  Pass 1  IDiag  1:
 RMSU=  3.16D-04    CP:  9.78D-01  6.03D-01  5.44D-01  1.63D-01  7.20D-01
                    CP:  6.96D-01
 E= -4731.33919122882     Delta-E=       -0.075229043425 Rises=F Damp=F
 DIIS: error= 2.45D-02 at cycle   7 NSaved=   7.
 NSaved= 7 IEnMin= 7 EnMin= -4731.33919122882     IErMin= 6 ErrMin= 2.07D-02
 ErrMax= 2.45D-02  0.00D+00 EMaxC= 1.00D-01 BMatC= 1.74D+00 BMatP= 1.81D+00
 IDIUse=3 WtCom= 7.93D-01 WtEn= 2.07D-01
 EnCoef did   100 forward-backward iterations
 Coeff-Com: -0.131D+00 0.235D+00 0.325D-01 0.140D-01-0.940D-01 0.175D+00
 Coeff-Com:  0.768D+00
 Coeff-En:   0.000D+00 0.000D+00 0.000D+00 0.970D-01 0.000D+00 0.214D-01
 Coeff-En:   0.882D+00
 Coeff:     -0.103D+00 0.187D+00 0.258D-01 0.312D-01-0.745D-01 0.143D+00
 Coeff:      0.792D+00
 Gap=     0.259 Goal=   None    Shift=    0.000
 Gap=     0.121 Goal=   None    Shift=    0.000
 RMSDP=2.25D-04 MaxDP=3.12D-02 DE=-7.52D-02 OVMax= 1.63D-02

 Cycle   8  Pass 1  IDiag  1:
 RMSU=  1.60D-04    CP:  9.76D-01  5.87D-01  5.19D-01  1.96D-01  6.87D-01
                    CP:  8.06D-01  8.93D-01
 E= -4731.40781803139     Delta-E=       -0.068626802569 Rises=F Damp=F
 DIIS: error= 1.29D-02 at cycle   8 NSaved=   8.
 NSaved= 8 IEnMin= 8 EnMin= -4731.40781803139     IErMin= 8 ErrMin= 1.29D-02
 ErrMax= 1.29D-02  0.00D+00 EMaxC= 1.00D-01 BMatC= 5.41D-01 BMatP= 1.74D+00
 IDIUse=3 WtCom= 8.71D-01 WtEn= 1.29D-01
 Coeff-Com: -0.306D-01 0.718D-01 0.187D-01 0.992D-02-0.177D+00-0.264D+00
 Coeff-Com:  0.232D+00 0.114D+01
 Coeff-En:   0.000D+00 0.000D+00 0.000D+00 0.413D-01 0.000D+00 0.000D+00
 Coeff-En:   0.000D+00 0.959D+00
 Coeff:     -0.267D-01 0.625D-01 0.163D-01 0.140D-01-0.154D+00-0.230D+00
 Coeff:      0.202D+00 0.112D+01
 Gap=     0.242 Goal=   None    Shift=    0.000
 Gap=     0.099 Goal=   None    Shift=    0.000
 RMSDP=2.15D-04 MaxDP=3.57D-02 DE=-6.86D-02 OVMax= 1.60D-02

 Cycle   9  Pass 1  IDiag  1:
 RMSU=  8.43D-05    CP:  9.75D-01  6.14D-01  5.16D-01  2.31D-01  6.18D-01
                    CP:  8.67D-01  1.39D+00  1.24D+00
 E= -4731.44210278151     Delta-E=       -0.034284750120 Rises=F Damp=F
 DIIS: error= 3.40D-03 at cycle   9 NSaved=   9.
 NSaved= 9 IEnMin= 9 EnMin= -4731.44210278151     IErMin= 9 ErrMin= 3.40D-03
 ErrMax= 3.40D-03  0.00D+00 EMaxC= 1.00D-01 BMatC= 4.06D-02 BMatP= 5.41D-01
 IDIUse=3 WtCom= 9.66D-01 WtEn= 3.40D-02
 Coeff-Com:  0.567D-02 0.357D-02 0.481D-02 0.379D-02-0.607D-01-0.156D+00
 Coeff-Com: -0.109D+00 0.464D+00 0.843D+00
 Coeff-En:   0.000D+00 0.000D+00 0.000D+00 0.000D+00 0.000D+00 0.000D+00
 Coeff-En:   0.000D+00 0.000D+00 0.100D+01
 Coeff:      0.548D-02 0.345D-02 0.465D-02 0.366D-02-0.587D-01-0.151D+00
 Coeff:     -0.105D+00 0.449D+00 0.849D+00
 Gap=     0.177 Goal=   None    Shift=    0.000
 Gap=     0.042 Goal=   None    Shift=    0.000
 RMSDP=9.54D-05 MaxDP=1.39D-02 DE=-3.43D-02 OVMax= 1.74D-02

 Cycle  10  Pass 1  IDiag  1:
 RMSU=  6.25D-05    CP:  9.74D-01  6.16D-01  5.10D-01  2.43D-01  5.97D-01
                    CP:  8.83D-01  1.48D+00  1.56D+00  9.69D-01
 E= -4731.44509984473     Delta-E=       -0.002997063220 Rises=F Damp=F
 DIIS: error= 5.12D-04 at cycle  10 NSaved=  10.
 NSaved=10 IEnMin=10 EnMin= -4731.44509984473     IErMin=10 ErrMin= 5.12D-04
 ErrMax= 5.12D-04  0.00D+00 EMaxC= 1.00D-01 BMatC= 2.54D-03 BMatP= 4.06D-02
 IDIUse=3 WtCom= 9.95D-01 WtEn= 5.12D-03
 Coeff-Com:  0.575D-02-0.587D-02-0.815D-03 0.845D-03-0.195D-02-0.326D-01
 Coeff-Com: -0.886D-01 0.268D-01 0.539D+00 0.558D+00
 Coeff-En:   0.000D+00 0.000D+00 0.000D+00 0.000D+00 0.000D+00 0.000D+00
 Coeff-En:   0.000D+00 0.000D+00 0.000D+00 0.100D+01
 Coeff:      0.572D-02-0.584D-02-0.811D-03 0.841D-03-0.194D-02-0.325D-01
 Coeff:     -0.882D-01 0.267D-01 0.536D+00 0.560D+00
 Gap=     0.172 Goal=   None    Shift=    0.000
 Gap=     0.039 Goal=   None    Shift=    0.000
 RMSDP=4.12D-05 MaxDP=4.00D-03 DE=-3.00D-03 OVMax= 1.41D-02

 Cycle  11  Pass 1  IDiag  1:
 RMSU=  3.01D-05    CP:  9.74D-01  6.18D-01  5.10D-01  2.48D-01  5.93D-01
                    CP:  8.85D-01  1.51D+00  1.58D+00  1.22D+00  8.09D-01
 E= -4731.44549214441     Delta-E=       -0.000392299675 Rises=F Damp=F
 DIIS: error= 7.99D-04 at cycle  11 NSaved=  11.
 NSaved=11 IEnMin=11 EnMin= -4731.44549214441     IErMin=10 ErrMin= 5.12D-04
 ErrMax= 7.99D-04  0.00D+00 EMaxC= 1.00D-01 BMatC= 1.90D-03 BMatP= 2.54D-03
 IDIUse=3 WtCom= 9.95D-01 WtEn= 5.12D-03
 Coeff-Com:  0.173D-02-0.222D-02-0.953D-03 0.113D-03 0.768D-04-0.588D-02
 Coeff-Com: -0.153D-01 0.388D-02 0.171D+00 0.246D+00 0.602D+00
 Coeff-En:   0.000D+00 0.000D+00 0.000D+00 0.000D+00 0.000D+00 0.000D+00
 Coeff-En:   0.000D+00 0.000D+00 0.000D+00 0.271D-01 0.973D+00
 Coeff:      0.172D-02-0.220D-02-0.948D-03 0.113D-03 0.764D-04-0.585D-02
 Coeff:     -0.152D-01 0.386D-02 0.170D+00 0.244D+00 0.604D+00
 Gap=     0.176 Goal=   None    Shift=    0.000
 Gap=     0.043 Goal=   None    Shift=    0.000
 RMSDP=1.81D-05 MaxDP=1.85D-03 DE=-3.92D-04 OVMax= 1.09D-02

 Cycle  12  Pass 1  IDiag  1:
 RMSU=  1.31D-05    CP:  9.74D-01  6.17D-01  5.10D-01  2.47D-01  5.95D-01
                    CP:  8.83D-01  1.50D+00  1.55D+00  1.23D+00  9.32D-01
                    CP:  1.23D+00
 E= -4731.44560884743     Delta-E=       -0.000116703022 Rises=F Damp=F
 DIIS: error= 4.07D-04 at cycle  12 NSaved=  12.
 NSaved=12 IEnMin=12 EnMin= -4731.44560884743     IErMin=12 ErrMin= 4.07D-04
 ErrMax= 4.07D-04  0.00D+00 EMaxC= 1.00D-01 BMatC= 4.78D-04 BMatP= 1.90D-03
 IDIUse=3 WtCom= 9.96D-01 WtEn= 4.07D-03
 Coeff-Com:  0.184D-03-0.379D-03-0.489D-03-0.252D-04-0.103D-02-0.153D-02
 Coeff-Com:  0.678D-02 0.156D-01 0.234D-01 0.475D-01 0.255D+00 0.655D+00
 Coeff-En:   0.000D+00 0.000D+00 0.000D+00 0.000D+00 0.000D+00 0.000D+00
 Coeff-En:   0.000D+00 0.000D+00 0.000D+00 0.000D+00 0.000D+00 0.100D+01
 Coeff:      0.183D-03-0.378D-03-0.487D-03-0.250D-04-0.102D-02-0.152D-02
 Coeff:      0.675D-02 0.155D-01 0.233D-01 0.473D-01 0.254D+00 0.656D+00
 Gap=     0.179 Goal=   None    Shift=    0.000
 Gap=     0.045 Goal=   None    Shift=    0.000
 RMSDP=1.54D-05 MaxDP=1.84D-03 DE=-1.17D-04 OVMax= 1.23D-02

 Cycle  13  Pass 1  IDiag  1:
 RMSU=  4.80D-06    CP:  9.74D-01  6.17D-01  5.10D-01  2.46D-01  5.96D-01
                    CP:  8.81D-01  1.49D+00  1.54D+00  1.23D+00  1.02D+00
                    CP:  1.62D+00  1.45D+00
 E= -4731.44565759339     Delta-E=       -0.000048745962 Rises=F Damp=F
 DIIS: error= 2.24D-04 at cycle  13 NSaved=  13.
 NSaved=13 IEnMin=13 EnMin= -4731.44565759339     IErMin=13 ErrMin= 2.24D-04
 ErrMax= 2.24D-04  0.00D+00 EMaxC= 1.00D-01 BMatC= 1.46D-04 BMatP= 4.78D-04
 IDIUse=3 WtCom= 9.98D-01 WtEn= 2.24D-03
 Coeff-Com: -0.512D-04 0.617D-04-0.164D-03-0.619D-04-0.647D-03-0.150D-02
 Coeff-Com:  0.504D-02 0.160D-01-0.298D-02-0.324D-02 0.440D-01 0.265D+00
 Coeff-Com:  0.678D+00
 Coeff-En:   0.000D+00 0.000D+00 0.000D+00 0.000D+00 0.000D+00 0.000D+00
 Coeff-En:   0.000D+00 0.000D+00 0.000D+00 0.000D+00 0.000D+00 0.000D+00
 Coeff-En:   0.100D+01
 Coeff:     -0.511D-04 0.616D-04-0.164D-03-0.618D-04-0.646D-03-0.150D-02
 Coeff:      0.503D-02 0.159D-01-0.297D-02-0.323D-02 0.439D-01 0.265D+00
 Coeff:      0.679D+00
 Gap=     0.180 Goal=   None    Shift=    0.000
 Gap=     0.046 Goal=   None    Shift=    0.000
 RMSDP=1.46D-05 MaxDP=1.83D-03 DE=-4.87D-05 OVMax= 1.32D-02

 Cycle  14  Pass 1  IDiag  1:
 RMSU=  2.05D-06    CP:  9.74D-01  6.17D-01  5.10D-01  2.46D-01  5.96D-01
                    CP:  8.79D-01  1.49D+00  1.53D+00  1.25D+00  1.10D+00
                    CP:  1.97D+00  2.00D+00  1.58D+00
 E= -4731.44568782841     Delta-E=       -0.000030235016 Rises=F Damp=F
 DIIS: error= 2.01D-04 at cycle  14 NSaved=  14.
 NSaved=14 IEnMin=14 EnMin= -4731.44568782841     IErMin=14 ErrMin= 2.01D-04
 ErrMax= 2.01D-04  0.00D+00 EMaxC= 1.00D-01 BMatC= 1.16D-04 BMatP= 1.46D-04
 IDIUse=3 WtCom= 9.98D-01 WtEn= 2.01D-03
 Coeff-Com: -0.145D-04 0.208D-04-0.115D-03-0.458D-04-0.662D-04-0.201D-02
 Coeff-Com:  0.663D-03 0.136D-01 0.226D-02-0.441D-02-0.170D-01-0.309D-01
 Coeff-Com:  0.308D+00 0.730D+00
 Coeff-En:   0.000D+00 0.000D+00 0.000D+00 0.000D+00 0.000D+00 0.000D+00
 Coeff-En:   0.000D+00 0.000D+00 0.000D+00 0.000D+00 0.000D+00 0.000D+00
 Coeff-En:   0.000D+00 0.100D+01
 Coeff:     -0.144D-04 0.208D-04-0.115D-03-0.457D-04-0.661D-04-0.201D-02
 Coeff:      0.661D-03 0.136D-01 0.226D-02-0.440D-02-0.170D-01-0.308D-01
 Coeff:      0.308D+00 0.730D+00
 Gap=     0.182 Goal=   None    Shift=    0.000
 Gap=     0.046 Goal=   None    Shift=    0.000
 RMSDP=1.55D-05 MaxDP=1.95D-03 DE=-3.02D-05 OVMax= 1.47D-02

 Cycle  15  Pass 1  IDiag  1:
 RMSU=  1.21D-06    CP:  9.74D-01  6.17D-01  5.10D-01  2.45D-01  5.95D-01
                    CP:  8.77D-01  1.48D+00  1.53D+00  1.26D+00  1.18D+00
                    CP:  2.35D+00  2.57D+00  2.37D+00  1.85D+00
 E= -4731.44571467501     Delta-E=       -0.000026846597 Rises=F Damp=F
 DIIS: error= 2.17D-04 at cycle  15 NSaved=  15.
 NSaved=15 IEnMin=15 EnMin= -4731.44571467501     IErMin=14 ErrMin= 2.01D-04
 ErrMax= 2.17D-04  0.00D+00 EMaxC= 1.00D-01 BMatC= 1.35D-04 BMatP= 1.16D-04
 IDIUse=3 WtCom= 9.98D-01 WtEn= 2.01D-03
 Coeff-Com:  0.260D-04-0.118D-04-0.160D-03-0.498D-04 0.110D-03-0.244D-02
 Coeff-Com: -0.905D-03 0.133D-01 0.128D-01 0.947D-02 0.132D-01-0.837D-01
 Coeff-Com: -0.709D-01 0.277D+00 0.833D+00
 Coeff-En:   0.000D+00 0.000D+00 0.000D+00 0.000D+00 0.000D+00 0.000D+00
 Coeff-En:   0.000D+00 0.000D+00 0.000D+00 0.000D+00 0.000D+00 0.000D+00
 Coeff-En:   0.000D+00 0.000D+00 0.100D+01
 Coeff:      0.259D-04-0.118D-04-0.160D-03-0.497D-04 0.110D-03-0.243D-02
 Coeff:     -0.903D-03 0.133D-01 0.127D-01 0.945D-02 0.132D-01-0.836D-01
 Coeff:     -0.707D-01 0.276D+00 0.833D+00
 Gap=     0.184 Goal=   None    Shift=    0.000
 Gap=     0.047 Goal=   None    Shift=    0.000
 RMSDP=1.55D-05 MaxDP=1.92D-03 DE=-2.68D-05 OVMax= 1.50D-02

 Cycle  16  Pass 1  IDiag  1:
 RMSU=  2.22D-06    CP:  9.74D-01  6.17D-01  5.10D-01  2.45D-01  5.95D-01
                    CP:  8.74D-01  1.47D+00  1.52D+00  1.27D+00  1.26D+00
                    CP:  2.72D+00  3.00D+00  3.00D+00  2.99D+00  1.97D+00
 E= -4731.44573963551     Delta-E=       -0.000024960505 Rises=F Damp=F
 DIIS: error= 2.23D-04 at cycle  16 NSaved=  16.
 NSaved=16 IEnMin=16 EnMin= -4731.44573963551     IErMin=14 ErrMin= 2.01D-04
 ErrMax= 2.23D-04  0.00D+00 EMaxC= 1.00D-01 BMatC= 1.43D-04 BMatP= 1.16D-04
 IDIUse=3 WtCom= 9.98D-01 WtEn= 2.01D-03
 Coeff-Com:  0.665D-04-0.842D-04-0.222D-03-0.527D-04-0.158D-03-0.239D-02
 Coeff-Com:  0.765D-03 0.149D-01 0.159D-01 0.180D-01 0.613D-01 0.618D-01
 Coeff-Com:  0.660D-01-0.346D+00-0.599D+00 0.171D+01
 Coeff-En:   0.000D+00 0.000D+00 0.000D+00 0.000D+00 0.000D+00 0.000D+00
 Coeff-En:   0.000D+00 0.000D+00 0.000D+00 0.000D+00 0.000D+00 0.000D+00
 Coeff-En:   0.000D+00 0.000D+00 0.000D+00 0.100D+01
 Coeff:      0.664D-04-0.840D-04-0.221D-03-0.526D-04-0.158D-03-0.238D-02
 Coeff:      0.763D-03 0.149D-01 0.159D-01 0.180D-01 0.611D-01 0.617D-01
 Coeff:      0.658D-01-0.345D+00-0.598D+00 0.171D+01
 Gap=     0.186 Goal=   None    Shift=    0.000
 Gap=     0.047 Goal=   None    Shift=    0.000
 RMSDP=1.92D-05 MaxDP=2.35D-03 DE=-2.50D-05 OVMax= 1.87D-02

 Cycle  17  Pass 1  IDiag  1:
 RMSU=  8.91D-06    CP:  9.74D-01  6.17D-01  5.11D-01  2.44D-01  5.95D-01
                    CP:  8.70D-01  1.46D+00  1.51D+00  1.28D+00  1.35D+00
                    CP:  3.00D+00  3.00D+00  3.00D+00  3.00D+00  3.00D+00
                    CP:  3.00D+00
 E= -4731.44576830168     Delta-E=       -0.000028666165 Rises=F Damp=F
 DIIS: error= 2.04D-04 at cycle  17 NSaved=  17.
 NSaved=17 IEnMin=17 EnMin= -4731.44576830168     IErMin=14 ErrMin= 2.01D-04
 ErrMax= 2.04D-04  0.00D+00 EMaxC= 1.00D-01 BMatC= 1.19D-04 BMatP= 1.16D-04
 IDIUse=3 WtCom= 9.98D-01 WtEn= 2.01D-03
 Coeff-Com:  0.452D-04-0.691D-04-0.134D-03-0.329D-04-0.179D-03-0.130D-02
 Coeff-Com:  0.158D-02 0.112D-01 0.449D-02 0.276D-02 0.458D-02 0.547D-01
 Coeff-Com:  0.536D+00 0.284D+00-0.253D+01 0.592D+00 0.204D+01
 Coeff-En:   0.000D+00 0.000D+00 0.000D+00 0.000D+00 0.000D+00 0.000D+00
 Coeff-En:   0.000D+00 0.000D+00 0.000D+00 0.000D+00 0.000D+00 0.000D+00
 Coeff-En:   0.000D+00 0.000D+00 0.000D+00 0.000D+00 0.100D+01
 Coeff:      0.451D-04-0.690D-04-0.133D-03-0.328D-04-0.179D-03-0.130D-02
 Coeff:      0.158D-02 0.112D-01 0.449D-02 0.276D-02 0.457D-02 0.546D-01
 Coeff:      0.535D+00 0.283D+00-0.252D+01 0.591D+00 0.204D+01
 Gap=     0.191 Goal=   None    Shift=    0.000
 Gap=     0.048 Goal=   None    Shift=    0.000
 RMSDP=3.10D-05 MaxDP=3.68D-03 DE=-2.87D-05 OVMax= 2.99D-02

 Cycle  18  Pass 1  IDiag  1:
 RMSU=  1.27D-05    CP:  9.74D-01  6.16D-01  5.11D-01  2.43D-01  5.94D-01
                    CP:  8.63D-01  1.44D+00  1.49D+00  1.29D+00  1.49D+00
                    CP:  3.00D+00  3.00D+00  3.00D+00  3.00D+00  3.00D+00
                    CP:  3.00D+00  3.00D+00
 E= -4731.44580319500     Delta-E=       -0.000034893319 Rises=F Damp=F
 DIIS: error= 1.73D-04 at cycle  18 NSaved=  18.
 NSaved=18 IEnMin=18 EnMin= -4731.44580319500     IErMin=18 ErrMin= 1.73D-04
 ErrMax= 1.73D-04  0.00D+00 EMaxC= 1.00D-01 BMatC= 8.44D-05 BMatP= 1.16D-04
 IDIUse=3 WtCom= 9.98D-01 WtEn= 1.73D-03
 Coeff-Com: -0.169D-04 0.465D-04-0.615D-05-0.107D-04 0.375D-03-0.526D-03
 Coeff-Com: -0.113D-02 0.457D-02-0.174D-02-0.104D-01-0.795D-01-0.147D+00
 Coeff-Com:  0.495D+00 0.127D+01-0.149D+01-0.198D+01 0.183D+01 0.110D+01
 Coeff-En:   0.000D+00 0.000D+00 0.000D+00 0.000D+00 0.000D+00 0.000D+00
 Coeff-En:   0.000D+00 0.000D+00 0.000D+00 0.000D+00 0.000D+00 0.000D+00
 Coeff-En:   0.000D+00 0.000D+00 0.000D+00 0.000D+00 0.000D+00 0.100D+01
 Coeff:     -0.169D-04 0.464D-04-0.614D-05-0.106D-04 0.374D-03-0.525D-03
 Coeff:     -0.113D-02 0.457D-02-0.173D-02-0.104D-01-0.793D-01-0.147D+00
 Coeff:      0.494D+00 0.127D+01-0.149D+01-0.197D+01 0.183D+01 0.110D+01
 Gap=     0.195 Goal=   None    Shift=    0.000
 Gap=     0.049 Goal=   None    Shift=    0.000
 RMSDP=2.30D-05 MaxDP=2.57D-03 DE=-3.49D-05 OVMax= 2.14D-02

 Cycle  19  Pass 1  IDiag  1:
 RMSU=  9.43D-06    CP:  9.74D-01  6.16D-01  5.11D-01  2.42D-01  5.94D-01
                    CP:  8.57D-01  1.43D+00  1.47D+00  1.28D+00  1.59D+00
                    CP:  3.00D+00  3.00D+00  3.00D+00  3.00D+00  3.00D+00
                    CP:  3.00D+00  3.00D+00  2.45D+00
 E= -4731.44582022500     Delta-E=       -0.000017030008 Rises=F Damp=F
 DIIS: error= 1.02D-04 at cycle  19 NSaved=  19.
 NSaved=19 IEnMin=19 EnMin= -4731.44582022500     IErMin=19 ErrMin= 1.02D-04
 ErrMax= 1.02D-04  0.00D+00 EMaxC= 1.00D-01 BMatC= 2.91D-05 BMatP= 8.44D-05
 IDIUse=3 WtCom= 9.99D-01 WtEn= 1.02D-03
 Coeff-Com: -0.147D-04 0.405D-04 0.158D-04 0.498D-05 0.682D-03-0.300D-03
 Coeff-Com: -0.313D-02 0.113D-03 0.210D-02-0.500D-02-0.709D-01-0.203D+00
 Coeff-Com:  0.927D-01 0.109D+01 0.332D+00-0.217D+01 0.307D+00 0.648D+00
 Coeff-Com:  0.978D+00
 Coeff-En:   0.000D+00 0.000D+00 0.000D+00 0.000D+00 0.000D+00 0.000D+00
 Coeff-En:   0.000D+00 0.000D+00 0.000D+00 0.000D+00 0.000D+00 0.000D+00
 Coeff-En:   0.000D+00 0.000D+00 0.000D+00 0.000D+00 0.000D+00 0.000D+00
 Coeff-En:   0.100D+01
 Coeff:     -0.147D-04 0.404D-04 0.158D-04 0.497D-05 0.681D-03-0.300D-03
 Coeff:     -0.312D-02 0.113D-03 0.210D-02-0.500D-02-0.709D-01-0.203D+00
 Coeff:      0.926D-01 0.109D+01 0.331D+00-0.216D+01 0.307D+00 0.648D+00
 Coeff:      0.978D+00
 Gap=     0.198 Goal=   None    Shift=    0.000
 Gap=     0.050 Goal=   None    Shift=    0.000
 RMSDP=1.40D-05 MaxDP=1.45D-03 DE=-1.70D-05 OVMax= 1.24D-02

 Cycle  20  Pass 1  IDiag  1:
 RMSU=  4.30D-06    CP:  9.74D-01  6.16D-01  5.11D-01  2.41D-01  5.94D-01
                    CP:  8.53D-01  1.42D+00  1.46D+00  1.28D+00  1.64D+00
                    CP:  3.00D+00  3.00D+00  3.00D+00  3.00D+00  3.00D+00
                    CP:  3.00D+00  3.00D+00  3.00D+00  1.62D+00
 E= -4731.44582567128     Delta-E=       -0.000005446274 Rises=F Damp=F
 DIIS: error= 2.18D-05 at cycle  20 NSaved=  20.
 NSaved=20 IEnMin=20 EnMin= -4731.44582567128     IErMin=20 ErrMin= 2.18D-05
 ErrMax= 2.18D-05  0.00D+00 EMaxC= 1.00D-01 BMatC= 1.37D-06 BMatP= 2.91D-05
 IDIUse=1 WtCom= 1.00D+00 WtEn= 0.00D+00
 Coeff-Com:  0.239D-04-0.273D-04-0.121D-04-0.268D-05 0.349D-03-0.960D-04
 Coeff-Com: -0.170D-02-0.976D-03 0.557D-02 0.616D-02 0.494D-02-0.544D-01
 Coeff-Com: -0.208D+00-0.368D-01 0.720D+00-0.689D-01-0.487D+00-0.231D+00
 Coeff-Com:  0.359D+00 0.993D+00
 Coeff:      0.239D-04-0.273D-04-0.121D-04-0.268D-05 0.349D-03-0.960D-04
 Coeff:     -0.170D-02-0.976D-03 0.557D-02 0.616D-02 0.494D-02-0.544D-01
 Coeff:     -0.208D+00-0.368D-01 0.720D+00-0.689D-01-0.487D+00-0.231D+00
 Coeff:      0.359D+00 0.993D+00
 Gap=     0.199 Goal=   None    Shift=    0.000
 Gap=     0.050 Goal=   None    Shift=    0.000
 RMSDP=6.36D-06 MaxDP=6.25D-04 DE=-5.45D-06 OVMax= 5.65D-03

 Cycle  21  Pass 1  IDiag  1:
 Restarting incremental Fock formation.
 E= -4731.44582643292     Delta-E=       -0.000000761644 Rises=F Damp=F
 DIIS: error= 1.62D-05 at cycle  21 NSaved=  20.
 NSaved=20 IEnMin=20 EnMin= -4731.44582643292     IErMin=20 ErrMin= 1.62D-05
 ErrMax= 1.62D-05  0.00D+00 EMaxC= 1.00D-01 BMatC= 7.53D-07 BMatP= 1.37D-06
 IDIUse=1 WtCom= 1.00D+00 WtEn= 0.00D+00
 Coeff-Com: -0.375D-05-0.240D-04-0.497D-05 0.309D-04-0.235D-04-0.505D-04
 Coeff-Com:  0.313D-04 0.310D-02 0.473D-02 0.201D-01 0.222D-01-0.109D+00
 Coeff-Com: -0.249D+00 0.277D+00 0.484D+00-0.293D+00-0.285D+00-0.168D+00
 Coeff-Com:  0.416D+00 0.877D+00
 Coeff:     -0.375D-05-0.240D-04-0.497D-05 0.309D-04-0.235D-04-0.505D-04
 Coeff:      0.313D-04 0.310D-02 0.473D-02 0.201D-01 0.222D-01-0.109D+00
 Coeff:     -0.249D+00 0.277D+00 0.484D+00-0.293D+00-0.285D+00-0.168D+00
 Coeff:      0.416D+00 0.877D+00
 Gap=     0.199 Goal=   None    Shift=    0.000
 Gap=     0.050 Goal=   None    Shift=    0.000
 RMSDP=3.09D-06 MaxDP=3.58D-04 DE=-7.62D-07 OVMax= 2.48D-03

 Cycle  22  Pass 1  IDiag  1:
 RMSU=  3.09D-06    CP:  1.00D+00
 E= -4731.44582660960     Delta-E=       -0.000000176675 Rises=F Damp=F
 DIIS: error= 2.03D-05 at cycle  22 NSaved=  20.
 NSaved=20 IEnMin=20 EnMin= -4731.44582660960     IErMin=19 ErrMin= 1.62D-05
 ErrMax= 2.03D-05  0.00D+00 EMaxC= 1.00D-01 BMatC= 1.27D-06 BMatP= 7.53D-07
 IDIUse=1 WtCom= 1.00D+00 WtEn= 0.00D+00
 Coeff-Com:  0.125D-04-0.392D-05-0.662D-04 0.390D-04 0.445D-03 0.348D-03
 Coeff-Com:  0.197D-03 0.804D-03 0.824D-02 0.226D-01 0.162D-01-0.125D+00
 Coeff-Com: -0.245D+00 0.294D+00 0.171D+00 0.132D-01-0.180D+00-0.188D+00
 Coeff-Com:  0.491D+00 0.720D+00
 Coeff:      0.125D-04-0.392D-05-0.662D-04 0.390D-04 0.445D-03 0.348D-03
 Coeff:      0.197D-03 0.804D-03 0.824D-02 0.226D-01 0.162D-01-0.125D+00
 Coeff:     -0.245D+00 0.294D+00 0.171D+00 0.132D-01-0.180D+00-0.188D+00
 Coeff:      0.491D+00 0.720D+00
 Gap=     0.199 Goal=   None    Shift=    0.000
 Gap=     0.050 Goal=   None    Shift=    0.000
 RMSDP=9.53D-07 MaxDP=1.05D-04 DE=-1.77D-07 OVMax= 3.61D-04

 Cycle  23  Pass 1  IDiag  1:
 RMSU=  9.52D-07    CP:  1.00D+00  1.00D+00
 E= -4731.44582665314     Delta-E=       -0.000000043543 Rises=F Damp=F
 DIIS: error= 2.46D-05 at cycle  23 NSaved=  20.
 NSaved=20 IEnMin=20 EnMin= -4731.44582665314     IErMin=18 ErrMin= 1.62D-05
 ErrMax= 2.46D-05  0.00D+00 EMaxC= 1.00D-01 BMatC= 1.67D-06 BMatP= 7.53D-07
 IDIUse=1 WtCom= 1.00D+00 WtEn= 0.00D+00
 Coeff-Com: -0.773D-06-0.672D-04 0.366D-04 0.432D-03 0.272D-03-0.784D-03
 Coeff-Com: -0.602D-03 0.343D-02 0.248D-01 0.608D-01 0.125D-01-0.782D-01
 Coeff-Com: -0.175D-02-0.192D-01 0.122D-01-0.144D+00-0.382D+00-0.432D-01
 Coeff-Com:  0.340D+00 0.121D+01
 Coeff:     -0.773D-06-0.672D-04 0.366D-04 0.432D-03 0.272D-03-0.784D-03
 Coeff:     -0.602D-03 0.343D-02 0.248D-01 0.608D-01 0.125D-01-0.782D-01
 Coeff:     -0.175D-02-0.192D-01 0.122D-01-0.144D+00-0.382D+00-0.432D-01
 Coeff:      0.340D+00 0.121D+01
 Gap=     0.199 Goal=   None    Shift=    0.000
 Gap=     0.050 Goal=   None    Shift=    0.000
 RMSDP=3.53D-06 MaxDP=5.29D-04 DE=-4.35D-08 OVMax= 2.33D-03

 Cycle  24  Pass 1  IDiag  1:
 RMSU=  2.74D-06    CP:  1.00D+00  1.71D+00  1.38D+00
 E= -4731.44582697437     Delta-E=       -0.000000321228 Rises=F Damp=F
 DIIS: error= 2.25D-05 at cycle  24 NSaved=  20.
 NSaved=20 IEnMin=20 EnMin= -4731.44582697437     IErMin=17 ErrMin= 1.62D-05
 ErrMax= 2.25D-05  0.00D+00 EMaxC= 1.00D-01 BMatC= 1.52D-06 BMatP= 7.53D-07
 IDIUse=1 WtCom= 1.00D+00 WtEn= 0.00D+00
 Coeff-Com:  0.120D-04 0.515D-04 0.963D-04 0.348D-05-0.293D-03-0.886D-04
 Coeff-Com:  0.257D-03 0.801D-02 0.422D-01 0.585D-01-0.357D-01-0.129D+00
 Coeff-Com: -0.181D-01 0.612D-01 0.106D-01-0.286D+00-0.378D+00-0.235D+00
 Coeff-Com:  0.123D+01 0.673D+00
 Coeff:      0.120D-04 0.515D-04 0.963D-04 0.348D-05-0.293D-03-0.886D-04
 Coeff:      0.257D-03 0.801D-02 0.422D-01 0.585D-01-0.357D-01-0.129D+00
 Coeff:     -0.181D-01 0.612D-01 0.106D-01-0.286D+00-0.378D+00-0.235D+00
 Coeff:      0.123D+01 0.673D+00
 Gap=     0.199 Goal=   None    Shift=    0.000
 Gap=     0.050 Goal=   None    Shift=    0.000
 RMSDP=1.98D-06 MaxDP=2.04D-04 DE=-3.21D-07 OVMax= 1.14D-03

 Cycle  25  Pass 1  IDiag  1:
 RMSU=  1.56D-07    CP:  1.00D+00  1.75D+00  2.43D+00  1.62D+00
 E= -4731.44582723421     Delta-E=       -0.000000259844 Rises=F Damp=F
 DIIS: error= 1.84D-06 at cycle  25 NSaved=  20.
 NSaved=20 IEnMin=20 EnMin= -4731.44582723421     IErMin=20 ErrMin= 1.84D-06
 ErrMax= 1.84D-06  0.00D+00 EMaxC= 1.00D-01 BMatC= 8.98D-09 BMatP= 7.53D-07
 IDIUse=1 WtCom= 1.00D+00 WtEn= 0.00D+00
 Coeff-Com:  0.141D-04 0.895D-04 0.112D-03-0.177D-03-0.254D-04 0.909D-03
 Coeff-Com:  0.596D-02 0.134D-01 0.121D-01 0.291D-01-0.248D-01-0.679D-01
 Coeff-Com: -0.663D-02-0.972D-02-0.852D-01-0.134D+00-0.237D+00 0.401D+00
 Coeff-Com:  0.153D-02 0.110D+01
 Coeff:      0.141D-04 0.895D-04 0.112D-03-0.177D-03-0.254D-04 0.909D-03
 Coeff:      0.596D-02 0.134D-01 0.121D-01 0.291D-01-0.248D-01-0.679D-01
 Coeff:     -0.663D-02-0.972D-02-0.852D-01-0.134D+00-0.237D+00 0.401D+00
 Coeff:      0.153D-02 0.110D+01
 Gap=     0.199 Goal=   None    Shift=    0.000
 Gap=     0.050 Goal=   None    Shift=    0.000
 RMSDP=2.11D-06 MaxDP=2.65D-04 DE=-2.60D-07 OVMax= 1.31D-03

 Cycle  26  Pass 1  IDiag  1:
 RMSU=  1.82D-07    CP:  1.00D+00  1.93D+00  3.00D+00  2.31D+00  2.01D+00
 E= -4731.44582733587     Delta-E=       -0.000000101656 Rises=F Damp=F
 DIIS: error= 2.14D-06 at cycle  26 NSaved=  20.
 NSaved=20 IEnMin=20 EnMin= -4731.44582733587     IErMin=19 ErrMin= 1.84D-06
 ErrMax= 2.14D-06  0.00D+00 EMaxC= 1.00D-01 BMatC= 1.77D-08 BMatP= 8.98D-09
 IDIUse=1 WtCom= 1.00D+00 WtEn= 0.00D+00
 Coeff-Com:  0.396D-04 0.701D-04 0.377D-04 0.668D-04 0.752D-03 0.174D-02
 Coeff-Com: -0.573D-02-0.157D-01 0.347D-01 0.331D-01-0.421D-01-0.312D-01
 Coeff-Com: -0.266D-01 0.493D-01 0.147D+00 0.717D-01-0.140D+00-0.490D+00
 Coeff-Com:  0.183D+00 0.123D+01
 Coeff:      0.396D-04 0.701D-04 0.377D-04 0.668D-04 0.752D-03 0.174D-02
 Coeff:     -0.573D-02-0.157D-01 0.347D-01 0.331D-01-0.421D-01-0.312D-01
 Coeff:     -0.266D-01 0.493D-01 0.147D+00 0.717D-01-0.140D+00-0.490D+00
 Coeff:      0.183D+00 0.123D+01
 Gap=     0.200 Goal=   None    Shift=    0.000
 Gap=     0.050 Goal=   None    Shift=    0.000
 RMSDP=1.52D-06 MaxDP=1.55D-04 DE=-1.02D-07 OVMax= 1.22D-03

 Cycle  27  Pass 1  IDiag  1:
 RMSU=  1.55D-07    CP:  1.00D+00  1.77D+00  3.00D+00  2.81D+00  3.00D+00
                    CP:  2.97D+00
 E= -4731.44582739185     Delta-E=       -0.000000055979 Rises=F Damp=F
 DIIS: error= 8.46D-07 at cycle  27 NSaved=  20.
 NSaved=20 IEnMin=20 EnMin= -4731.44582739185     IErMin=20 ErrMin= 8.46D-07
 ErrMax= 8.46D-07  0.00D+00 EMaxC= 1.00D-01 BMatC= 3.53D-09 BMatP= 8.98D-09
 IDIUse=1 WtCom= 1.00D+00 WtEn= 0.00D+00
 Coeff-Com:  0.950D-07 0.121D-03 0.116D-03 0.281D-03 0.369D-03-0.191D-02
 Coeff-Com: -0.577D-02 0.212D-02 0.715D-02 0.334D-06-0.496D-02-0.109D-01
 Coeff-Com:  0.216D-01 0.850D-01 0.103D+00-0.312D-01-0.189D+00-0.372D+00
 Coeff-Com:  0.603D+00 0.794D+00
 Coeff:      0.950D-07 0.121D-03 0.116D-03 0.281D-03 0.369D-03-0.191D-02
 Coeff:     -0.577D-02 0.212D-02 0.715D-02 0.334D-06-0.496D-02-0.109D-01
 Coeff:      0.216D-01 0.850D-01 0.103D+00-0.312D-01-0.189D+00-0.372D+00
 Coeff:      0.603D+00 0.794D+00
 Gap=     0.200 Goal=   None    Shift=    0.000
 Gap=     0.050 Goal=   None    Shift=    0.000
 RMSDP=5.89D-07 MaxDP=8.13D-05 DE=-5.60D-08 OVMax= 5.29D-04

 Cycle  28  Pass 1  IDiag  1:
 RMSU=  2.03D-07    CP:  1.00D+00  1.62D+00  3.00D+00  2.92D+00  3.00D+00
                    CP:  3.00D+00  1.14D+00
 E= -4731.44582740197     Delta-E=       -0.000000010119 Rises=F Damp=F
 DIIS: error= 1.26D-06 at cycle  28 NSaved=  20.
 NSaved=20 IEnMin=20 EnMin= -4731.44582740197     IErMin=19 ErrMin= 8.46D-07
 ErrMax= 1.26D-06  0.00D+00 EMaxC= 1.00D-01 BMatC= 5.58D-09 BMatP= 3.53D-09
 IDIUse=1 WtCom= 1.00D+00 WtEn= 0.00D+00
 Coeff-Com:  0.369D-04 0.236D-04 0.221D-03 0.115D-02 0.226D-02-0.767D-03
 Coeff-Com: -0.650D-02-0.135D-02 0.661D-02 0.389D-02-0.763D-02-0.154D-01
 Coeff-Com: -0.934D-02 0.224D-01 0.494D-01 0.862D-01-0.239D+00-0.114D+00
 Coeff-Com:  0.307D+00 0.915D+00
 Coeff:      0.369D-04 0.236D-04 0.221D-03 0.115D-02 0.226D-02-0.767D-03
 Coeff:     -0.650D-02-0.135D-02 0.661D-02 0.389D-02-0.763D-02-0.154D-01
 Coeff:     -0.934D-02 0.224D-01 0.494D-01 0.862D-01-0.239D+00-0.114D+00
 Coeff:      0.307D+00 0.915D+00
 Gap=     0.200 Goal=   None    Shift=    0.000
 Gap=     0.050 Goal=   None    Shift=    0.000
 RMSDP=3.14D-07 MaxDP=3.93D-05 DE=-1.01D-08 OVMax= 2.53D-04

 Cycle  29  Pass 1  IDiag  1:
 RMSU=  4.75D-08    CP:  1.00D+00  1.63D+00  3.00D+00  3.00D+00  3.00D+00
                    CP:  3.00D+00  1.25D+00  2.08D+00
 E= -4731.44582740941     Delta-E=       -0.000000007440 Rises=F Damp=F
 DIIS: error= 7.91D-07 at cycle  29 NSaved=  20.
 NSaved=20 IEnMin=20 EnMin= -4731.44582740941     IErMin=20 ErrMin= 7.91D-07
 ErrMax= 7.91D-07  0.00D+00 EMaxC= 1.00D-01 BMatC= 2.36D-09 BMatP= 3.53D-09
 IDIUse=1 WtCom= 1.00D+00 WtEn= 0.00D+00
 Coeff-Com:  0.300D-04 0.459D-03 0.112D-02-0.549D-03-0.698D-02-0.805D-02
 Coeff-Com:  0.166D-01 0.703D-02 0.190D-02 0.439D-03-0.162D-01-0.667D-01
 Coeff-Com: -0.856D-01 0.185D-03 0.204D+00 0.227D+00-0.679D+00-0.713D+00
 Coeff-Com:  0.468D+00 0.165D+01
 Coeff:      0.300D-04 0.459D-03 0.112D-02-0.549D-03-0.698D-02-0.805D-02
 Coeff:      0.166D-01 0.703D-02 0.190D-02 0.439D-03-0.162D-01-0.667D-01
 Coeff:     -0.856D-01 0.185D-03 0.204D+00 0.227D+00-0.679D+00-0.713D+00
 Coeff:      0.468D+00 0.165D+01
 Gap=     0.200 Goal=   None    Shift=    0.000
 Gap=     0.050 Goal=   None    Shift=    0.000
 RMSDP=7.81D-07 MaxDP=9.94D-05 DE=-7.44D-09 OVMax= 6.37D-04

 Cycle  30  Pass 1  IDiag  1:
 RMSU=  6.34D-07    CP:  1.00D+00  1.66D+00  3.00D+00  3.00D+00  3.00D+00
                    CP:  3.00D+00  1.83D+00  3.00D+00  3.00D+00
 E= -4731.44582742273     Delta-E=       -0.000000013319 Rises=F Damp=F
 DIIS: error= 7.94D-07 at cycle  30 NSaved=  20.
 NSaved=20 IEnMin=20 EnMin= -4731.44582742273     IErMin=19 ErrMin= 7.91D-07
 ErrMax= 7.94D-07  0.00D+00 EMaxC= 1.00D-01 BMatC= 1.85D-09 BMatP= 2.36D-09
 IDIUse=1 WtCom= 1.00D+00 WtEn= 0.00D+00
 Coeff-Com:  0.211D-03 0.212D-03-0.240D-02-0.245D-02 0.957D-02 0.959D-02
 Coeff-Com: -0.104D-01-0.632D-02 0.424D-02 0.365D-02-0.244D-01-0.691D-01
 Coeff-Com: -0.186D-02 0.426D-01 0.303D+00-0.320D+00-0.556D+00-0.252D+00
 Coeff-Com:  0.815D+00 0.106D+01
 Coeff:      0.211D-03 0.212D-03-0.240D-02-0.245D-02 0.957D-02 0.959D-02
 Coeff:     -0.104D-01-0.632D-02 0.424D-02 0.365D-02-0.244D-01-0.691D-01
 Coeff:     -0.186D-02 0.426D-01 0.303D+00-0.320D+00-0.556D+00-0.252D+00
 Coeff:      0.815D+00 0.106D+01
 Gap=     0.200 Goal=   None    Shift=    0.000
 Gap=     0.050 Goal=   None    Shift=    0.000
 RMSDP=4.67D-07 MaxDP=6.09D-05 DE=-1.33D-08 OVMax= 3.74D-04

 Cycle  31  Pass 1  IDiag  1:
 RMSU=  2.82D-07    CP:  1.00D+00  1.73D+00  3.00D+00  3.00D+00  3.00D+00
                    CP:  3.00D+00  1.88D+00  3.00D+00  3.00D+00  1.49D+00
 E= -4731.44582742759     Delta-E=       -0.000000004868 Rises=F Damp=F
 DIIS: error= 2.41D-06 at cycle  31 NSaved=  20.
 NSaved=20 IEnMin=20 EnMin= -4731.44582742759     IErMin=18 ErrMin= 7.91D-07
 ErrMax= 2.41D-06  0.00D+00 EMaxC= 1.00D-01 BMatC= 1.64D-08 BMatP= 1.85D-09
 IDIUse=1 WtCom= 1.00D+00 WtEn= 0.00D+00
 Coeff-Com: -0.689D-03-0.258D-02 0.126D-02 0.128D-01-0.689D-03-0.132D-01
 Coeff-Com: -0.623D-02 0.873D-02 0.162D-01 0.858D-02-0.331D-01 0.142D-01
 Coeff-Com: -0.107D+00 0.165D+00 0.873D-01-0.218D-01-0.275D+00-0.368D+00
 Coeff-Com:  0.519D+00 0.996D+00
 Coeff:     -0.689D-03-0.258D-02 0.126D-02 0.128D-01-0.689D-03-0.132D-01
 Coeff:     -0.623D-02 0.873D-02 0.162D-01 0.858D-02-0.331D-01 0.142D-01
 Coeff:     -0.107D+00 0.165D+00 0.873D-01-0.218D-01-0.275D+00-0.368D+00
 Coeff:      0.519D+00 0.996D+00
 Gap=     0.200 Goal=   None    Shift=    0.000
 Gap=     0.050 Goal=   None    Shift=    0.000
 RMSDP=3.41D-07 MaxDP=4.56D-05 DE=-4.87D-09 OVMax= 2.77D-04

 Cycle  32  Pass 1  IDiag  1:
 RMSU=  4.93D-08    CP:  1.00D+00  1.77D+00  3.00D+00  3.00D+00  3.00D+00
                    CP:  3.00D+00  2.14D+00  3.00D+00  3.00D+00  1.89D+00
                    CP:  1.66D+00
 E= -4731.44582743103     Delta-E=       -0.000000003440 Rises=F Damp=F
 DIIS: error= 6.18D-07 at cycle  32 NSaved=  20.
 NSaved=20 IEnMin=20 EnMin= -4731.44582743103     IErMin=20 ErrMin= 6.18D-07
 ErrMax= 6.18D-07  0.00D+00 EMaxC= 1.00D-01 BMatC= 1.18D-09 BMatP= 1.85D-09
 IDIUse=1 WtCom= 1.00D+00 WtEn= 0.00D+00
 Coeff-Com: -0.547D-04 0.875D-03 0.520D-02-0.136D-02-0.789D-02-0.483D-02
 Coeff-Com:  0.537D-03 0.758D-02 0.194D-01 0.128D-01 0.160D-01-0.106D+00
 Coeff-Com: -0.332D-01 0.177D+00 0.271D+00 0.707D-01-0.685D+00-0.351D+00
 Coeff-Com:  0.524D+00 0.108D+01
 Coeff:     -0.547D-04 0.875D-03 0.520D-02-0.136D-02-0.789D-02-0.483D-02
 Coeff:      0.537D-03 0.758D-02 0.194D-01 0.128D-01 0.160D-01-0.106D+00
 Coeff:     -0.332D-01 0.177D+00 0.271D+00 0.707D-01-0.685D+00-0.351D+00
 Coeff:      0.524D+00 0.108D+01
 Gap=     0.200 Goal=   None    Shift=    0.000
 Gap=     0.050 Goal=   None    Shift=    0.000
 RMSDP=3.47D-07 MaxDP=4.48D-05 DE=-3.44D-09 OVMax= 2.90D-04

 Cycle  33  Pass 1  IDiag  1:
 RMSU=  2.78D-08    CP:  1.00D+00  1.80D+00  3.00D+00  3.00D+00  3.00D+00
                    CP:  3.00D+00  2.41D+00  3.00D+00  3.00D+00  2.37D+00
                    CP:  2.04D+00  1.60D+00
 E= -4731.44582743226     Delta-E=       -0.000000001226 Rises=F Damp=F
 DIIS: error= 1.84D-07 at cycle  33 NSaved=  20.
 NSaved=20 IEnMin=20 EnMin= -4731.44582743226     IErMin=20 ErrMin= 1.84D-07
 ErrMax= 1.84D-07  0.00D+00 EMaxC= 1.00D-01 BMatC= 1.33D-10 BMatP= 1.18D-09
 IDIUse=1 WtCom= 1.00D+00 WtEn= 0.00D+00
 Coeff-Com:  0.220D-03-0.256D-03-0.394D-04-0.108D-02-0.154D-02-0.139D-02
 Coeff-Com:  0.161D-02 0.127D-01 0.197D-01 0.342D-02-0.516D-01-0.603D-01
 Coeff-Com:  0.107D+00 0.187D+00 0.761D-01-0.364D+00-0.285D+00 0.908D-01
 Coeff-Com:  0.532D+00 0.735D+00
 Coeff:      0.220D-03-0.256D-03-0.394D-04-0.108D-02-0.154D-02-0.139D-02
 Coeff:      0.161D-02 0.127D-01 0.197D-01 0.342D-02-0.516D-01-0.603D-01
 Coeff:      0.107D+00 0.187D+00 0.761D-01-0.364D+00-0.285D+00 0.908D-01
 Coeff:      0.532D+00 0.735D+00
 Gap=     0.200 Goal=   None    Shift=    0.000
 Gap=     0.050 Goal=   None    Shift=    0.000
 RMSDP=1.33D-07 MaxDP=1.74D-05 DE=-1.23D-09 OVMax= 9.75D-05

 Cycle  34  Pass 1  IDiag  1:
 RMSU=  7.47D-09    CP:  1.00D+00  1.80D+00  3.00D+00  3.00D+00  3.00D+00
                    CP:  3.00D+00  2.53D+00  3.00D+00  3.00D+00  2.57D+00
                    CP:  2.16D+00  1.88D+00  1.50D+00
 E= -4731.44582743236     Delta-E=       -0.000000000106 Rises=F Damp=F
 DIIS: error= 4.73D-07 at cycle  34 NSaved=  20.
 NSaved=20 IEnMin=20 EnMin= -4731.44582743236     IErMin=19 ErrMin= 1.84D-07
 ErrMax= 4.73D-07  0.00D+00 EMaxC= 1.00D-01 BMatC= 6.67D-10 BMatP= 1.33D-10
 IDIUse=1 WtCom= 1.00D+00 WtEn= 0.00D+00
 Coeff-Com: -0.107D-02 0.751D-03 0.120D-02 0.739D-04-0.250D-02-0.294D-02
 Coeff-Com:  0.361D-02 0.160D-01-0.250D-02 0.211D-01-0.324D-01-0.143D-02
 Coeff-Com: -0.146D-02-0.334D-01 0.827D-01 0.909D-01-0.154D+00-0.375D+00
 Coeff-Com:  0.264D+00 0.113D+01
 Coeff:     -0.107D-02 0.751D-03 0.120D-02 0.739D-04-0.250D-02-0.294D-02
 Coeff:      0.361D-02 0.160D-01-0.250D-02 0.211D-01-0.324D-01-0.143D-02
 Coeff:     -0.146D-02-0.334D-01 0.827D-01 0.909D-01-0.154D+00-0.375D+00
 Coeff:      0.264D+00 0.113D+01
 Gap=     0.200 Goal=   None    Shift=    0.000
 Gap=     0.050 Goal=   None    Shift=    0.000
 RMSDP=6.51D-08 MaxDP=6.26D-06 DE=-1.06D-10 OVMax= 5.35D-05

 Cycle  35  Pass 1  IDiag  1:
 RMSU=  1.60D-08    CP:  1.00D+00  1.79D+00  3.00D+00  3.00D+00  3.00D+00
                    CP:  3.00D+00  2.44D+00  3.00D+00  3.00D+00  2.57D+00
                    CP:  2.33D+00  1.62D+00  1.96D+00  3.00D+00
 E= -4731.44582743251     Delta-E=       -0.000000000146 Rises=F Damp=F
 DIIS: error= 1.01D-07 at cycle  35 NSaved=  20.
 NSaved=20 IEnMin=20 EnMin= -4731.44582743251     IErMin=20 ErrMin= 1.01D-07
 ErrMax= 1.01D-07  0.00D+00 EMaxC= 1.00D-01 BMatC= 3.18D-11 BMatP= 1.33D-10
 IDIUse=1 WtCom= 1.00D+00 WtEn= 0.00D+00
 Coeff-Com: -0.492D-03 0.600D-03 0.366D-03 0.220D-03 0.551D-03 0.668D-03
 Coeff-Com:  0.323D-02-0.605D-02 0.146D-01 0.550D-02-0.578D-02-0.393D-01
 Coeff-Com: -0.571D-01 0.109D+00 0.136D+00-0.882D-01-0.343D+00-0.724D-01
 Coeff-Com:  0.588D+00 0.753D+00
 Coeff:     -0.492D-03 0.600D-03 0.366D-03 0.220D-03 0.551D-03 0.668D-03
 Coeff:      0.323D-02-0.605D-02 0.146D-01 0.550D-02-0.578D-02-0.393D-01
 Coeff:     -0.571D-01 0.109D+00 0.136D+00-0.882D-01-0.343D+00-0.724D-01
 Coeff:      0.588D+00 0.753D+00
 Gap=     0.200 Goal=   None    Shift=    0.000
 Gap=     0.050 Goal=   None    Shift=    0.000
 RMSDP=2.95D-08 MaxDP=3.28D-06 DE=-1.46D-10 OVMax= 2.26D-05

 Cycle  36  Pass 1  IDiag  1:
 RMSU=  8.99D-09    CP:  1.00D+00  1.79D+00  3.00D+00  3.00D+00  3.00D+00
                    CP:  3.00D+00  2.40D+00  3.00D+00  3.00D+00  2.55D+00
                    CP:  2.40D+00  1.60D+00  2.14D+00  3.00D+00  1.48D+00
 E= -4731.44582743257     Delta-E=       -0.000000000056 Rises=F Damp=F
 DIIS: error= 5.61D-08 at cycle  36 NSaved=  20.
 NSaved=20 IEnMin=20 EnMin= -4731.44582743257     IErMin=20 ErrMin= 5.61D-08
 ErrMax= 5.61D-08  0.00D+00 EMaxC= 1.00D-01 BMatC= 1.00D-11 BMatP= 3.18D-11
 IDIUse=1 WtCom= 1.00D+00 WtEn= 0.00D+00
 Coeff-Com: -0.133D-03-0.697D-04 0.364D-03 0.115D-02 0.119D-02-0.695D-03
 Coeff-Com: -0.268D-02-0.458D-02 0.976D-02 0.945D-02-0.884D-02-0.231D-01
 Coeff-Com:  0.771D-02 0.401D-01 0.634D-04-0.509D-01-0.585D-01 0.275D-01
 Coeff-Com:  0.215D+00 0.837D+00
[...]
 062226,-0.00042394,-0.00091206,-0.00497851,0.00706186,-0.01294816,-0.0
 0052591,0.00062805,-0.00236860,0.00312606,-0.00079593,0.00021366,-0.03
 557521,0.01502343,-0.21411746,0.00203085,-0.00022893,-0.00188019,0.000
 04728,-0.00000204,-0.00001166,-0.00000369,-0.00000329,-0.00002357,0.00
 001807,-0.00000469,-0.00001554,-0.00005031,-0.00001089,0.00004636,0.00
 006716,-0.00009825,-0.00008689,-0.02620660,-0.01867598,-0.02269723,-0.
 00096892,0.00029857,-0.00080663,0.00230515,0.00098702,0.00288007,-0.00
 039491,-0.00046036,-0.00022925,-0.00031650,-0.00004382,-0.00012994,-0.
 00036953,-0.00005362,-0.00028738,0.00021645,0.00017652,0.00028682,0.00
 049004,0.00063208,-0.00018724,0.00057733,-0.00018042,0.00082331,0.0000
 2338,-0.00006491,-0.00006669,-0.00012259,-0.00003201,-0.00001855,-0.00
 021990,-0.00018501,-0.00013776,-0.00004940,-0.00013991,0.00011328,-0.0
 0038642,0.00000600,-0.00081278,-0.00008987,0.00004691,-0.00026462,0.00
 000809,0.00021253,0.00019715,0.00009301,0.00007276,0.00014124,0.000080
 07,-0.00008026,-0.00003690,-0.00000435,-0.00004918,-0.00006447,-0.0000
 3428,-0.00010613,-0.00004649,-0.00000939,-0.00002356,-0.00019103,-0.00
 002993,-0.00001062,-0.00004485,-0.00000422,-0.00005324,-0.00004575,-0.
 00010614,-0.00007177,-0.00001826,-0.00005630,0.00000831,0.00000232,-0.
 00004972,0.00003004,-0.00003501,-0.00001729,0.00003021,0.00002258,-0.0
 0064662,0.00046047,-0.00002221,0.00000941,0.00006799,-0.00005642,0.000
 01467,0.00019524,0.00002417,-0.00000675,-0.00017194,0.00002863,0.00742
 265,0.00752239,0.49254416,0.00009191,-0.00003702,-0.00008634,-0.000157
 91,0.00009963,0.00024146,0.00002968,-0.00002207,-0.00007478,0.00000337
 ,0.00003155,0.00011605,-0.00000954,0.00002782,-0.00002261,-0.00004001,
 0.00002180,0.00005432,-0.00005434,-0.00010970,0.00048645,-0.00080299,-
 0.00050736,-0.00054561,0.00007708,-0.00017205,0.00193635,0.00023520,-0
 .00013890,-0.00003616,-0.00613324,-0.00159266,0.00266891,-0.00115004,0
 .00070584,0.00107891,-0.00000294,-0.00001120,0.00000648,-0.00000228,-0
 .00000373,-0.00000503,0.00000159,-0.00000023,-0.00000200,-0.00000054,0
 .00000142,-0.00000241,-0.00007254,0.00005671,0.00011041,0.00082204,-0.
 00134477,-0.00259921,-0.00008368,0.00002070,-0.00002067,0.00031997,0.0
 0004581,0.00032394,-0.00005349,-0.00008805,-0.00002513,-0.00003645,0.0
 0000284,-0.00002492,-0.00005404,0.00000969,-0.00003039,0.00005292,-0.0
 0000454,0.00002481,0.00005898,0.00011382,-0.00003078,0.00006167,-0.000
 06339,0.00012953,-0.00002312,0.00000563,-0.00000664,-0.00002008,0.0000
 0116,-0.00000128,-0.00003188,-0.00004173,-0.00001953,-0.00000400,-0.00
 002562,0.00001391,-0.00002758,0.00002728,-0.00013549,-0.00000071,0.000
 02420,-0.00003081,0.00000139,0.00003254,0.00003144,0.00001866,0.000018
 81,0.00003221,0.00000838,-0.00002838,-0.00000463,-0.00000080,-0.000006
 79,-0.00000951,-0.00000426,-0.00001361,-0.00000706,-0.00000169,-0.0000
 0339,-0.00003068,-0.00000637,-0.00000159,-0.00001233,0.00000044,-0.000
 01253,-0.00001112,-0.00001896,-0.00001324,-0.00000476,-0.00000507,0.00
 000633,-0.00000128,-0.00000711,0.00000765,-0.00000604,-0.00000281,0.00
 001380,0.00000656,-0.00003028,0.00001870,0.00000411,0.00000347,0.00002
 743,-0.00001190,0.00000199,0.00002116,0.00000587,-0.00000155,-0.000000
 38,0.00000099,-0.19483006,-0.14378291,-0.04509964,0.20568629,-0.000069
 57,0.00003055,0.00002983,-0.00044510,0.00006906,-0.00034964,0.00005442
 ,0.00000167,0.00014504,-0.00002062,0.00009200,-0.00018861,0.00013283,-
 0.00021040,0.00017582,-0.00005678,0.00013284,0.00015231,0.00005220,0.0
 0008514,0.00017590,-0.00055866,-0.00014457,-0.00008369,-0.00008555,-0.
 00110740,0.00205788,0.00018325,0.00004753,-0.00003826,0.00439281,0.000
 02810,-0.00055562,0.00096229,-0.00044839,-0.00043253,-0.00000622,-0.00
 001417,-0.00000661,-0.00001163,0.00000344,0.00001919,-0.00000199,-0.00
 000540,0.00000184,-0.00000147,0.00001692,0.00000889,-0.00002268,0.0000
 2723,0.00006130,-0.00066623,0.00187334,0.00142337,-0.00007324,-0.00004
 703,-0.00005817,0.00002235,0.00005829,0.00007021,-0.00000171,0.0000639
 4,-0.00002260,-0.00001917,-0.00001592,0.00003362,0.00003146,-0.0000274
 2,-0.00002078,-0.00005669,0.00003478,0.00003450,0.00001098,-0.00006336
 ,0.00007725,0.00003654,0.00005665,-0.00005202,0.00005122,-0.00001987,-
 0.00000791,0.00001635,-0.00000298,-0.00001024,0.00000036,0.00004071,-0
 .00003321,-0.00001245,0.00001352,-0.00003280,-0.00003397,-0.00002810,0
 .00005529,-0.00001227,-0.00002549,0.00000748,0.00000169,-0.00001391,-0
 .00001524,-0.00000319,-0.00000908,-0.00000184,-0.00000083,0.00002275,0
 .00000114,-0.00000356,0.00000511,0.00000469,0.00000036,0.00000561,0.00
 000330,0.00000035,0.00000125,0.00001229,-0.00000096,0.00000523,-0.0000
 0373,-0.00000132,0.00000381,0.00000169,0.00000558,0.00000388,-0.000000
 45,-0.00000104,-0.00000673,0.00000065,0.00000168,-0.00000484,0.0000019
 3,0.00000166,-0.00001332,-0.00000595,-0.00002605,-0.00000038,0.0000167
 6,-0.00000093,0.00000299,0.00000475,-0.00000136,0.00000416,-0.00000132
 ,0.00000205,-0.00000592,0.00000129,-0.14504101,-0.18293909,-0.04135729
 ,0.15361933,0.18897810,0.00039967,-0.00053403,0.00026029,-0.00060567,0
 .00061346,-0.00081964,0.00020273,-0.00029212,-0.00001235,-0.00008166,0
 .00015708,-0.00029606,0.00028184,-0.00045403,0.00038602,-0.00028500,0.
 00038229,0.00028179,-0.00043759,-0.00065326,-0.00061245,-0.00036754,-0
 .00077347,-0.00071022,0.00138927,0.00153118,0.00001942,-0.00056278,-0.
 00003857,0.00014420,-0.01927820,-0.02261388,0.00320944,0.00108510,-0.0
 0072550,-0.00029335,-0.00001071,0.00000604,0.00000923,-0.00000647,0.00
 000646,0.00001982,0.00000128,0.00000547,-0.00000018,0.00002357,0.00000
 730,-0.00000343,0.00007512,0.00018109,0.00024728,-0.00466972,-0.000506
 75,-0.01006181,0.00021226,0.00011609,-0.00002640,0.00053793,0.00009492
 ,0.00066728,-0.00007293,0.00010501,-0.00007910,-0.00010957,-0.00004079
 ,0.00016498,0.00014059,-0.00008060,-0.00009008,-0.00028859,0.00011240,
 0.00008531,0.00007461,-0.00015539,0.00007081,0.00022479,0.00008257,-0.
 00024179,0.00018875,-0.00005778,-0.00000699,0.00007824,-0.00000449,-0.
 00003019,-0.00001876,0.00013982,-0.00010331,-0.00001402,0.00005056,-0.
 00002791,-0.00011543,-0.00002105,0.00010699,-0.00004856,-0.00003002,0.
 00006387,0.00003059,-0.00005809,-0.00008881,-0.00002218,-0.00006380,-0
 .00000938,-0.00004876,0.00007126,-0.00002290,-0.00004071,0.00002722,0.
 00002027,-0.00000266,0.00002618,0.00001943,-0.00000223,0.00000632,0.00
 004207,0.00000091,0.00002310,-0.00000110,-0.00000637,0.00002691,0.0000
 1417,0.00001616,0.00001585,-0.00000037,0.00001997,-0.00001938,0.000005
 19,0.00002685,-0.00001817,0.00002446,0.00001286,-0.00004161,-0.0000120
 2,0.00006669,-0.00004045,0.00002085,-0.00000465,0.00000733,0.00001026,
 0.00000974,-0.00002849,0.00000154,0.00000572,0.00002790,-0.00001561,-0
 .04055608,-0.03624077,-0.05822040,0.04508620,0.04268781,0.06086767,0.0
 0008369,-0.00002350,-0.00010513,-0.00005284,-0.00025432,0.00020126,-0.
 00001382,0.00000893,-0.00008794,0.00001936,0.00001603,0.00018900,-0.00
 006665,0.00011069,-0.00007776,0.00003017,0.00000514,-0.00001392,-0.000
 29670,-0.00012897,0.00009827,-0.00019894,-0.00060811,-0.00055960,0.000
 31539,0.00051544,0.00065928,0.00002848,-0.00009876,0.00008614,-0.00436
 233,0.00748753,0.00273590,-0.00042644,-0.00021878,0.00032815,-0.000027
 27,0.00001813,-0.00000158,-0.00000016,-0.00000274,-0.00000790,-0.00000
 179,-0.00000020,-0.00000305,-0.00000485,-0.00000953,0.00000318,-0.0000
 6282,0.00003841,0.00007650,0.00028824,-0.00199144,-0.00149694,0.000021
 85,0.00008252,-0.00004497,0.00029480,0.00008272,0.00030487,-0.00006975
 ,-0.00013511,0.00001272,-0.00001980,0.00000636,-0.00003787,-0.00006339
 ,0.00000314,0.00000125,0.00006214,0.00000802,-0.00001238,0.00008418,0.
 00011956,-0.00018786,0.00003211,-0.00006760,0.00012671,-0.00003960,0.0
 0000479,0.00000072,-0.00003099,-0.00000852,0.00001376,-0.00003151,-0.0
 0004513,0.00004246,0.00000576,-0.00002606,0.00008407,-0.00001699,0.000
 02427,-0.00012832,0.00000520,0.00002444,-0.00003134,-0.00000203,0.0000
 3793,0.00003257,0.00000490,0.00000605,0.00000586,0.00001763,-0.0000125
 3,-0.00000289,0.00000332,-0.00000877,-0.00000938,-0.00000482,-0.000017
 36,-0.00000612,-0.00000134,-0.00000424,-0.00003099,0.00000082,-0.00000
 535,0.00000865,-0.00000123,-0.00000048,0.00000119,-0.00001681,-0.00001
 066,0.00000125,-0.00001010,0.00000104,0.00000117,-0.00000813,0.0000039
 9,-0.00000651,-0.00000376,0.00000687,0.00000533,-0.00000504,0.00001261
 ,-0.00001394,-0.00000501,0.00000182,-0.00000225,0.00000192,0.00000626,
 0.00000241,0.00000038,-0.00000245,-0.00000216,-0.06458908,0.07993065,-
 0.02754070,0.00863140,-0.01863046,0.00689425,0.06687714,-0.00005687,0.
 00009249,0.00004950,0.00012834,0.00038955,0.00013120,0.00003635,-0.000
 14741,-0.00015758,-0.00005034,0.00000511,0.00002219,0.00003424,-0.0000
 4875,0.00002383,-0.00006433,-0.00006003,-0.00003072,0.00025727,-0.0002
 6832,-0.00002835,0.00048689,-0.00041094,0.00004531,0.00034568,0.000353
 81,0.00030433,-0.00017556,-0.00018220,0.00010538,-0.00071720,0.0015656
 8,0.00140716,-0.00008425,-0.00008903,-0.00008792,0.00002125,0.00000457
 ,0.00001363,0.00000690,-0.00000105,-0.00000936,0.00000861,0.00000508,-
 0.00000030,0.00000306,-0.00000075,-0.00000427,-0.00002947,0.00004649,0
 .00004458,-0.00158695,-0.00051566,-0.00164606,0.00001982,0.00017657,-0
 .00009827,0.00030263,0.00008257,0.00041136,-0.00002332,-0.00008782,-0.
 00002455,-0.00002502,-0.00000068,-0.00001106,-0.00005875,0.00000340,-0
 .00003679,0.00003109,0.00001760,0.00003491,0.00000841,0.00013445,-0.00
 004954,0.00005183,-0.00003355,0.00007238,-0.00000552,-0.00000492,-0.00
 001129,-0.00001778,-0.00000369,-0.00000209,-0.00001536,-0.00005502,-0.
 00001746,0.00001515,-0.00003089,0.00003423,-0.00002686,0.00000370,-0.0
 0007900,-0.00000550,0.00001127,-0.00002073,0.00000216,0.00002685,0.000
 01474,0.00000139,0.00000748,0.00001589,0.00000429,-0.00001768,-0.00000
 188,-0.00000139,-0.00000576,-0.00000587,-0.00000404,-0.00001312,-0.000
 00248,-0.00000110,-0.00000341,-0.00001802,-0.00000040,-0.00000251,-0.0
 0000052,0.00000390,-0.00000955,-0.00000646,-0.00000800,-0.00000667,-0.
 00000248,-0.00000197,0.00000422,-0.00000187,-0.00000587,0.00000555,-0.
 00000638,-0.00000124,0.00000627,0.00000332,0.00002205,0.00001353,0.000
 00040,0.00000021,0.00000487,-0.00000349,0.00000258,-0.00000224,-0.0000
 0134,-0.00000013,0.00000688,-0.00000027,0.08023878,-0.29050921,0.06333
 327,0.00788613,-0.01186958,0.00453203,-0.08703082,0.30549077,-0.000347
 84,0.00039113,-0.00003654,-0.00006070,0.00010583,-0.00032009,0.0000473
 6,-0.00013956,0.00002377,-0.00001473,0.00003872,-0.00014788,0.00012219
 ,-0.00020085,0.00017821,-0.00007062,0.00010757,0.00006080,0.00013344,0
 .00056717,-0.00076442,0.00097278,-0.00226354,-0.00409214,-0.00016669,-
 0.00016340,0.00061734,0.00010702,-0.00006690,-0.00004360,-0.01074940,0
 .03021940,-0.01041425,0.00031918,0.00013031,-0.00004059,0.00002495,-0.
 00000844,0.00001167,0.00000005,0.00000582,0.00000942,0.00000194,-0.000
 00439,-0.00000145,-0.00000420,0.00001563,0.00001283,0.00021353,-0.0000
 0283,0.00000207,0.00293872,-0.00135252,0.00271814,-0.00000296,-0.00000
 492,-0.00001178,0.00012860,0.00001480,0.00002904,0.00004670,-0.0000092
 2,0.00001218,-0.00002726,-0.00001668,-0.00000073,0.00001100,-0.0000105
 6,0.00000186,-0.00002552,0.00000940,0.00000152,-0.00010147,-0.00000870
 ,-0.00000118,0.00005981,0.00003076,0.00006594,0.00000909,-0.00000673,-
 0.00000360,0.00000679,0.00000002,-0.00000156,0.00002639,-0.00001635,-0
 .00001635,0.00002841,0.00000475,0.00000373,-0.00002584,-0.00005183,-0.
 00005959,-0.00001769,-0.00002047,-0.00003078,-0.00001353,0.00003670,0.
 00000047,-0.00002199,-0.00001291,-0.00000629,0.00000577,0.00000375,-0.
 00000406,0.00001029,-0.00000894,-0.00000012,-0.00000290,-0.00001937,-0
 .00000088,0.00000162,-0.00000657,-0.00000914,0.00000436,0.00000237,0.0
 0000503,0.00000555,0.00000152,0.00000190,0.00001387,0.00000819,-0.0000
 0051,-0.00000517,-0.00000162,0.00000101,-0.00000027,-0.00000104,0.0000
 0009,0.00000007,-0.00000200,0.00000104,-0.00000936,0.00004980,-0.00000
 879,-0.00000325,0.00000425,-0.00000668,-0.00000192,0.00002132,0.000001
 71,-0.00000247,-0.00000537,0.00000429,-0.02739370,0.06459208,-0.054617
 83,0.00332969,-0.00633894,0.00091754,0.02565783,-0.07012556,0.06142454
 ,0.00000008,0.00001436,-0.00009428,-0.00028538,-0.00004294,-0.00033540
 ,0.00011092,-0.00020619,-0.00010693,-0.00005214,0.00014269,0.00006517,
 0.00013057,-0.00019619,0.00018206,-0.00013150,0.00025078,0.00025078,0.
 00001659,-0.00046185,0.00017486,-0.00203950,0.00136159,-0.00048092,0.0
 0031892,0.00001217,0.00050821,0.00072704,0.00005101,0.00011396,0.00872
 844,-0.00257681,-0.00366889,0.00023323,0.00006212,0.00013184,-0.000003
 37,-0.00000678,-0.00000118,-0.00000277,0.00000377,0.00001034,-0.000001
 71,-0.00000435,-0.00000269,-0.00000473,0.00000504,0.00001222,-0.000027
 91,0.00002862,0.00004721,-0.00157114,-0.00123776,-0.00197707,-0.000228
 65,-0.00007055,-0.00018285,0.00050651,0.00021427,0.00067177,-0.0001011
 4,-0.00005876,-0.00006605,-0.00008837,-0.00002156,0.00001523,-0.000020
 88,-0.00002683,-0.00005349,-0.00005799,0.00005719,0.00003682,0.0001291
 7,0.00005680,-0.00001587,0.00014924,-0.00001819,0.00010238,0.00005944,
 -0.00002334,-0.00000243,0.00000133,-0.00000807,-0.00000351,-0.00005650
 ,0.00002197,-0.00004570,-0.00001550,-0.00000912,0.00001037,-0.00009744
 ,-0.00000597,-0.00014588,-0.00002001,0.00000095,-0.00002944,0.00000513
 ,0.00002916,0.00001167,0.00001046,-0.00000684,0.00002949,0.00000610,0.
 00001036,-0.00002743,-0.00000753,-0.00000290,-0.00000553,-0.00000725,-
 0.00001383,-0.00000365,-0.00000189,-0.00000347,-0.00002548,-0.00000702
 ,0.00000761,-0.00001438,-0.00000273,0.00000078,-0.00000369,-0.00001399
 ,-0.00000713,-0.00000378,-0.00001137,-0.00000772,0.00000492,0.00000128
 ,-0.00000226,0.00000555,0.00000074,-0.00000459,0.00000768,-0.00016816,
 0.00010258,0.00001628,0.00000088,0.00002243,-0.00001115,0.00000327,0.0
 0005083,0.00000642,0.00000270,-0.00003090,-0.00000023,-0.23199839,0.04
 468639,0.12602938,-0.01243606,0.00628693,0.01057109,-0.00637489,0.0000
 7904,0.00484245,0.24469385,0.00004131,-0.00008958,0.00001522,-0.000051
 25,0.00023084,-0.00012780,0.00003983,-0.00000136,0.00000783,-0.0000348
 8,0.00003920,-0.00001249,0.00003144,-0.00004250,0.00003328,-0.00004251
 ,0.00000740,0.00002884,-0.00002112,-0.00004295,-0.00035575,0.00083984,
 -0.00111418,0.00022944,0.00009333,-0.00028881,0.00086869,-0.00037361,-
 0.00012239,0.00009331,0.00024552,-0.00221120,0.00321592,0.00021101,-0.
 00015942,-0.00008680,-0.00000221,0.00000319,0.00000144,-0.00000131,0.0
 0000022,0.00000450,0.00000156,0.00000271,0.00000029,0.00000430,0.00000
 241,0.00000080,0.00008618,0.00006760,0.00007677,-0.00207878,0.00024420
 ,-0.00144280,0.00007466,0.00006136,-0.00003880,0.00015711,0.00007053,0
 .00021707,-0.00003989,-0.00002796,0.00001352,-0.00001776,-0.00000851,0
 .00001879,-0.00000706,-0.00003327,-0.00002066,-0.00001255,0.00005779,0
 .00001875,0.00004412,-0.00000049,-0.00011869,0.00003715,0.00000923,-0.
 00002216,0.00002286,-0.00002151,-0.00000887,-0.00000746,-0.00001705,0.
 00000357,-0.00001543,0.00001184,0.00002632,0.00000484,0.00000195,0.000
 05643,-0.00001947,0.00000551,-0.00000326,-0.00000483,-0.00000528,0.000
 00652,0.00000550,0.00000289,-0.00000492,-0.00000751,-0.00001313,-0.000
 02059,0.00000956,0.00003037,0.00001150,-0.00000560,0.00000125,0.000000
 51,-0.00000176,-0.00000190,0.00000116,-0.00000075,-0.00000102,0.,0.000
 00656,-0.00000109,0.00001800,-0.00000329,0.00001093,0.00001088,0.00000
 138,0.00000185,0.00000507,-0.00000454,-0.00001053,0.00000153,-0.000004
 81,-0.00000522,-0.00000422,-0.00000112,-0.00001877,-0.00001010,0.00011
 175,-0.00004171,0.00002812,-0.00001394,-0.00002354,0.00001186,0.000002
 54,-0.00003414,-0.00000812,0.00000215,0.00001658,-0.00000622,0.0432467
 8,-0.04607370,-0.03396959,-0.01482193,0.00531474,0.01244884,0.02077854
 ,-0.00407832,-0.01549107,-0.04850450,0.04829495,-0.00007706,0.00009261
 ,-0.00012575,-0.00002317,-0.00023706,0.00008673,0.00002287,0.00001786,
 -0.00004591,-0.00001172,0.00004730,0.00012711,0.00000108,0.00000468,0.
 00001353,-0.00001619,0.00009610,0.00011370,0.00026398,-0.00042089,0.00
 023563,-0.00441570,0.00242980,-0.00191403,-0.00005581,-0.00047417,0.00
 022866,0.00157696,0.00039846,0.00000537,0.02482885,-0.00764492,-0.0211
 4293,0.00013737,-0.00002833,-0.00006238,0.00000098,-0.00000109,-0.0000
 0382,-0.00000273,0.00000034,0.00000208,-0.00000066,-0.00000273,-0.0000
 0241,-0.00000728,-0.00000088,0.00000769,-0.00002744,-0.00000992,-0.000
 04039,-0.00096315,0.00234624,0.00333964,-0.00043422,-0.00024885,-0.000
 21173,0.00006292,0.00020694,0.00011700,-0.00001646,-0.00000499,-0.0000
 1339,-0.00001429,-0.00001416,-0.00002799,-0.00001896,-0.00000103,0.000
 01931,-0.00002223,0.00000039,-0.00003417,0.00004540,0.00000015,-0.0000
 1974,0.00000275,0.00001017,0.00010355,0.00001054,0.00000137,0.00002032
 ,-0.00000057,-0.00000073,0.00000710,-0.00001653,0.00002052,0.00001555,
 -0.00000405,0.00000355,0.00000760,-0.00003561,-0.00002196,-0.00002934,
 0.00000349,-0.00000430,-0.00001944,0.00000264,0.00001981,0.00001854,-0
 .00000089,-0.00000824,0.00000195,0.00001453,-0.00000355,-0.00003196,0.
 00000266,-0.00000591,-0.00000571,-0.00000403,-0.00001094,-0.00000431,-
 0.00000115,-0.00000167,-0.00001294,-0.00000171,0.00000288,-0.00000352,
 -0.00000130,0.00000610,0.00000313,0.00000051,0.00000257,0.00000063,-0.
 00001774,-0.00000306,0.00000515,0.00000255,-0.00000192,0.00000813,-0.0
 0000035,0.00000813,0.00001484,-0.00037857,0.00010774,0.00001765,0.0000
 1202,0.00006725,-0.00002046,0.00000929,0.00010345,0.00001449,0.0000100
 9,-0.00005457,0.00000308,0.13006143,-0.03531037,-0.12583771,-0.0067898
 7,0.00235140,0.00410564,-0.00716324,0.00189232,0.00453470,-0.13655023,
 0.03427815,0.13643155\\0.00000390,-0.00000629,-0.00000291,-0.00000968,
 0.00000886,0.00000332,0.00000251,-0.00000128,0.00000797,-0.00000822,0.
 00000217,0.00002256,0.00000769,-0.00000595,0.00001798,-0.00000458,-0.0
 0000278,0.00001858,-0.00000765,-0.00000404,0.00003333,-0.00001233,0.00
 001513,-0.00001926,0.00001072,0.00000851,-0.00000245,0.00001534,-0.000
 02759,0.00000640,-0.00000587,0.00001444,-0.00002112,-0.00001131,0.0000
 0722,0.00001186,-0.00000719,0.00000396,0.00001724,0.00000170,0.0000005
 4,0.00002005,0.00000421,-0.00000616,0.00001700,0.00000159,0.00000196,0
 .00000458,-0.00000331,0.00000130,0.00000272,-0.00000556,-0.00002303,0.
 00001953,-0.00002147,0.00000708,-0.00002186,0.00001572,-0.00000108,0.0
 0005853,0.00000907,-0.00001198,-0.00000376,0.00000189,-0.00001084,-0.0
 0002800,-0.00000534,0.00001130,-0.00001091,0.00000638,0.00000764,-0.00
 003604,-0.00000176,-0.00002031,0.00000568,0.00002429,0.00000394,0.0000
 0743,-0.00001010,0.00000927,-0.00001013,-0.00000149,-0.00000339,-0.000
 01342,-0.00000389,0.00001213,-0.00002456,-0.00000610,0.00001384,-0.000
 00426,0.00001173,-0.00000299,0.00000278,-0.00000155,-0.00001567,0.0000
 0049,0.00002131,-0.00000777,0.00000292,-0.00000105,-0.00000877,-0.0000
 0904,-0.00000715,0.00000082,-0.00001082,-0.00000045,-0.00000607,0.0000
 0360,0.00000701,-0.00000771,0.00000548,0.00001506,-0.00001247,0.000002
 09,0.00000380,0.00001288,0.00000837,0.00000149,0.00000070,0.00001176,0
 .00000053,0.00000336,-0.00000111,0.00000965,-0.00000267,-0.00001577,0.
 00000421,-0.00000370,-0.00002252,0.00000042,-0.00000131,-0.00002264,0.
 00000504,0.00001433,-0.00001163,-0.00000405,0.00000274,-0.00000340,-0.
 00000166,0.00000028,-0.00001064,0.00000202,-0.00000128,-0.00000826,-0.
 00001454,-0.00000506,0.00000006,-0.00001139,0.00001281,0.00000266,-0.0
 0000410,0.00000430,-0.00000138,-0.00001547,0.00001865,0.00000091\\\@


 MISERY NO LONGER LOVES COMPANY.  NOWADAYS IT INSISTS ON IT.

                                              -- BAKER'S LAW
 Job cpu time:       1 days 20 hours 44 minutes  6.7 seconds.
 Elapsed time:       0 days  1 hours 52 minutes  5.9 seconds.
 File lengths (MBytes):  RWF=   7228 Int=      0 D2E=      0 Chk=     60 Scr=      8
 Normal termination of Gaussian 16 at Mon Mar  3 15:33:44 2025.
