 Entering Gaussian System, Link 0=/sysapps/ubuntu-applications/gaussian-new/avx/g16//g16
 Input=i3-minor.in
 Output=i3-minor.log
 Initial command:
 /sysapps/ubuntu-applications/gaussian-new/avx/g16/l1.exe "/data/temp-scratch/selhajj1/338136/Gau-3216401.inp" -scrdir="/data/temp-scratch/selhajj1/338136/"
 Entering Link 1 = /sysapps/ubuntu-applications/gaussian-new/avx/g16/l1.exe PID=   3216403.
  
 Copyright (c) 1988,1990,1992,1993,1995,1998,2003,2009,2016,
            Gaussian, Inc.  All Rights Reserved.
  
 This is part of the Gaussian(R) 16 program.  It is based on
 the Gaussian(R) 09 system (copyright 2009, Gaussian, Inc.),
 the Gaussian(R) 03 system (copyright 2003, Gaussian, Inc.),
 the Gaussian(R) 98 system (copyright 1998, Gaussian, Inc.),
 the Gaussian(R) 94 system (copyright 1995, Gaussian, Inc.),
 the Gaussian 92(TM) system (copyright 1992, Gaussian, Inc.),
 the Gaussian 90(TM) system (copyright 1990, Gaussian, Inc.),
 the Gaussian 88(TM) system (copyright 1988, Gaussian, Inc.),
 the Gaussian 86(TM) system (copyright 1986, Carnegie Mellon
 University), and the Gaussian 82(TM) system (copyright 1983,
 Carnegie Mellon University). Gaussian is a federally registered
 trademark of Gaussian, Inc.
  
 This software contains proprietary and confidential information,
 including trade secrets, belonging to Gaussian, Inc.
  
 This software is provided under written license and may be
 used, copied, transmitted, or stored only in accord with that
 written license.
  
 The following legend is applicable only to US Government
 contracts under FAR:
  
                    RESTRICTED RIGHTS LEGEND
  
 Use, reproduction and disclosure by the US Government is
 subject to restrictions as set forth in subparagraphs (a)
 and (c) of the Commercial Computer Software - Restricted
 Rights clause in FAR 52.227-19.
  
 Gaussian, Inc.
 340 Quinnipiac St., Bldg. 40, Wallingford CT 06492
  
  
 ---------------------------------------------------------------
 Warning -- This program may not be used in any manner that
 competes with the business of Gaussian, Inc. or will provide
 assistance to any competitor of Gaussian, Inc.  The licensee
 of this program is prohibited from giving any competitor of
 Gaussian, Inc. access to this program.  By using this program,
 the user acknowledges that Gaussian, Inc. is engaged in the
 business of creating and licensing software in the field of
 computational chemistry and represents and warrants to the
 licensee that it is not a competitor of Gaussian, Inc. and that
 it will not use this program in any manner prohibited above.
 ---------------------------------------------------------------
  

 Cite this work as:
 Gaussian 16, Revision A.03,
 M. J. Frisch, G. W. Trucks, H. B. Schlegel, G. E. Scuseria, 
 M. A. Robb, J. R. Cheeseman, G. Scalmani, V. Barone, 
 G. A. Petersson, H. Nakatsuji, X. Li, M. Caricato, A. V. Marenich, 
 J. Bloino, B. G. Janesko, R. Gomperts, B. Mennucci, H. P. Hratchian, 
 J. V. Ortiz, A. F. Izmaylov, J. L. Sonnenberg, D. Williams-Young, 
 F. Ding, F. Lipparini, F. Egidi, J. Goings, B. Peng, A. Petrone, 
 T. Henderson, D. Ranasinghe, V. G. Zakrzewski, J. Gao, N. Rega, 
 G. Zheng, W. Liang, M. Hada, M. Ehara, K. Toyota, R. Fukuda, 
 J. Hasegawa, M. Ishida, T. Nakajima, Y. Honda, O. Kitao, H. Nakai, 
 T. Vreven, K. Throssell, J. A. Montgomery, Jr., J. E. Peralta, 
 F. Ogliaro, M. J. Bearpark, J. J. Heyd, E. N. Brothers, K. N. Kudin, 
 V. N. Staroverov, T. A. Keith, R. Kobayashi, J. Normand, 
 K. Raghavachari, A. P. Rendell, J. C. Burant, S. S. Iyengar, 
 J. Tomasi, M. Cossi, J. M. Millam, M. Klene, C. Adamo, R. Cammi, 
 J. W. Ochterski, R. L. Martin, K. Morokuma, O. Farkas, 
 J. B. Foresman, and D. J. Fox, Gaussian, Inc., Wallingford CT, 2016.
 
 ******************************************
 Gaussian 16:  ES64L-G16RevA.03 25-Dec-2016
                 5-May-2025 
 ******************************************
 %chk=i3-minor.chk
 %mem=616Gb
 %nprocshared=24
 Will use up to   24 processors via shared memory.
 ----------------------------------------------------------------------
 #P UMN15/genecp scf=(maxcyc=500) freq scrf=(smd,solvent=DiChloroEthane
 )
 ----------------------------------------------------------------------
 1/10=4,30=1,38=1/1,3;
 2/12=2,17=6,18=5,40=1/2;
 3/5=7,11=2,16=1,17=8,25=1,30=1,70=32201,71=2,72=10,74=-73,116=2,140=1/1,2,3;
 4//1;
 5/5=2,7=500,38=5,53=10,98=1/2;
 8/6=4,10=90,11=11/1;
 11/6=1,8=1,9=11,15=111,16=1/1,2,10;
 10/6=1/2;
 6/7=2,8=2,9=2,10=2,28=1/1;
 7/8=1,10=1,25=1/1,2,3,16;
 1/10=4,30=1/3;
 99//99;
 Leave Link    1 at Mon May  5 22:14:06 2025, MaxMem= 82678120448 cpu:               3.4 elap:               0.2
 (Enter /sysapps/ubuntu-applications/gaussian-new/avx/g16/l101.exe)
 ----
 freq
 ----
 Symbolic Z-matrix:
 Charge =  0 Multiplicity = 1
 C                    -2.25033  -0.25088   0.93271 
 C                    -1.64312  -0.40193  -0.50065 
 C                    -1.12667   0.00129   1.96197 
 O                    -0.01072  -0.47756   1.7645 
 O                    -0.62218   0.24337  -0.74098 
 O                     2.96735  -1.22925   1.23911 
 O                     2.20766  -0.51047  -1.85376 
 O                     0.49817   2.19954   0.99908 
 S                     1.24658   3.0922    0.06244 
 S                     3.77867  -0.17918   1.93655 
 S                     1.61806  -1.89226  -1.86533 
 O                     2.00201   2.16244  -0.84177 
 O                     1.95581   4.21396   0.61547 
 O                     3.00658   1.08391   1.71375 
 O                     4.27479  -0.45987   3.25366 
 O                     0.97076  -2.05004  -0.53004 
 O                     0.85046  -2.27157  -3.02473 
 C                     3.08575  -3.01522  -1.84705 
 C                     5.21554   0.01611   0.80377 
 C                    -0.06257   3.81064  -1.02441 
 F                     2.70897  -4.19     -1.38118 
 F                     4.03576  -2.51422  -1.08449 
 F                     3.52892  -3.14352  -3.08168 
 F                     4.72932   0.31083  -0.39618 
 F                     5.89279  -1.11065   0.74269 
 F                     5.99302   0.99178   1.22081 
 F                    -0.51196   2.89104  -1.85804 
 F                     0.44505   4.81719  -1.705 
 F                    -1.05534   4.24032  -0.26471 
 C                    -4.38059   0.84579   0.49146 
 C                    -5.09755  -0.33918   1.19044 
 C                    -6.50901  -0.46302   0.77727 
 C                    -5.11118  -0.05262   2.65679 
 C                    -2.28438  -2.80222   1.08369 
 C                    -4.46447  -3.80228   1.26575 
 C                    -3.02415  -3.91768   1.03503 
 H                    -1.20084  -2.80195   0.92288 
 H                    -5.07341  -4.69037   1.45526 
 H                    -2.58848  -4.89687   0.83147 
 N                    -7.62884  -0.49299   0.48969 
 N                    -5.06334   0.14712   3.79614 
 N                    -4.34847  -1.55589   0.91474 
 N                    -5.08919  -2.68103   1.21022 
 C                    -2.98407  -1.51527   1.4424 
 H                    -3.02986  -1.43423   2.55399 
 H                    -4.85275   1.77178   0.85172 
 C                    -4.37169   0.85229  -1.02604 
 C                    -3.56664   1.84263  -1.61211 
 C                    -5.0759   -0.03243  -1.85079 
 C                    -3.45147   1.93647  -2.99786 
 H                    -3.01685   2.53405  -0.96921 
 C                    -4.97496   0.07581  -3.23978 
 H                    -5.68277  -0.83843  -1.43613 
 C                    -4.1606    1.05247  -3.8165 
 H                    -2.80963   2.70243  -3.43771 
 H                    -5.52589  -0.6227   -3.87287 
 H                    -4.07728   1.12463  -4.90304 
 Lu                    1.47621   0.18774   0.18991 
 O                    -3.06417   0.89277   1.02042 
 C                    -1.44084   0.81319   3.15395 
 H                    -1.47664   1.86004   2.80414 
 H                    -2.43449   0.58634   3.56497 
 H                    -0.64642   0.70347   3.90092 
 C                    -2.18284  -1.3151   -1.53909 
 H                    -3.12773  -1.79445  -1.27524 
 H                    -2.27017  -0.75217  -2.48252 
 H                    -1.40204  -2.07956  -1.69935 
 
 ITRead=  0  0  0  0  0  0  0  0  0  0  0  0  0  0  0  0  0  0  0  0
 ITRead=  0  0  0  0  0  0  0  0  0  0  0  0  0  0  0  0  0  0  0  0
 ITRead=  0  0  0  0  0  0  0  0  0  0  0  0  0  0  0  0  0  0  0  0
 ITRead=  0  0  0  0  0  0  0
 MicOpt= -1 -1 -1 -1 -1 -1 -1 -1 -1 -1 -1 -1 -1 -1 -1 -1 -1 -1 -1 -1
 MicOpt= -1 -1 -1 -1 -1 -1 -1 -1 -1 -1 -1 -1 -1 -1 -1 -1 -1 -1 -1 -1
 MicOpt= -1 -1 -1 -1 -1 -1 -1 -1 -1 -1 -1 -1 -1 -1 -1 -1 -1 -1 -1 -1
 MicOpt= -1 -1 -1 -1 -1 -1 -1
 NAtoms=     67 NQM=       67 NQMF=       0 NMMI=      0 NMMIF=      0
                NMic=       0 NMicF=      0.
                    Isotopes and Nuclear Properties:
 (Nuclear quadrupole moments (NQMom) in fm**2, nuclear magnetic moments (NMagM)
  in nuclear magnetons)

  Atom         1           2           3           4           5           6           7           8           9          10
 IAtWgt=          12          12          12          16          16          16          16          16          32          32
 AtmWgt=  12.0000000  12.0000000  12.0000000  15.9949146  15.9949146  15.9949146  15.9949146  15.9949146  31.9720718  31.9720718
 NucSpn=           0           0           0           0           0           0           0           0           0           0
 AtZEff=  -0.0000000  -0.0000000  -0.0000000  -0.0000000  -0.0000000  -0.0000000  -0.0000000  -0.0000000  -0.0000000  -0.0000000
 NQMom=    0.0000000   0.0000000   0.0000000   0.0000000   0.0000000   0.0000000   0.0000000   0.0000000   0.0000000   0.0000000
 NMagM=    0.0000000   0.0000000   0.0000000   0.0000000   0.0000000   0.0000000   0.0000000   0.0000000   0.0000000   0.0000000
 AtZNuc=   6.0000000   6.0000000   6.0000000   8.0000000   8.0000000   8.0000000   8.0000000   8.0000000  16.0000000  16.0000000

  Atom        11          12          13          14          15          16          17          18          19          20
 IAtWgt=          32          16          16          16          16          16          16          12          12          12
 AtmWgt=  31.9720718  15.9949146  15.9949146  15.9949146  15.9949146  15.9949146  15.9949146  12.0000000  12.0000000  12.0000000
 NucSpn=           0           0           0           0           0           0           0           0           0           0
 AtZEff=  -0.0000000  -0.0000000  -0.0000000  -0.0000000  -0.0000000  -0.0000000  -0.0000000  -0.0000000  -0.0000000  -0.0000000
 NQMom=    0.0000000   0.0000000   0.0000000   0.0000000   0.0000000   0.0000000   0.0000000   0.0000000   0.0000000   0.0000000
 NMagM=    0.0000000   0.0000000   0.0000000   0.0000000   0.0000000   0.0000000   0.0000000   0.0000000   0.0000000   0.0000000
 AtZNuc=  16.0000000   8.0000000   8.0000000   8.0000000   8.0000000   8.0000000   8.0000000   6.0000000   6.0000000   6.0000000

  Atom        21          22          23          24          25          26          27          28          29          30
 IAtWgt=          19          19          19          19          19          19          19          19          19          12
 AtmWgt=  18.9984032  18.9984032  18.9984032  18.9984032  18.9984032  18.9984032  18.9984032  18.9984032  18.9984032  12.0000000
 NucSpn=           1           1           1           1           1           1           1           1           1           0
 AtZEff=  -0.0000000  -0.0000000  -0.0000000  -0.0000000  -0.0000000  -0.0000000  -0.0000000  -0.0000000  -0.0000000  -0.0000000
 NQMom=    0.0000000   0.0000000   0.0000000   0.0000000   0.0000000   0.0000000   0.0000000   0.0000000   0.0000000   0.0000000
 NMagM=    2.6288670   2.6288670   2.6288670   2.6288670   2.6288670   2.6288670   2.6288670   2.6288670   2.6288670   0.0000000
 AtZNuc=   9.0000000   9.0000000   9.0000000   9.0000000   9.0000000   9.0000000   9.0000000   9.0000000   9.0000000   6.0000000

  Atom        31          32          33          34          35          36          37          38          39          40
 IAtWgt=          12          12          12          12          12          12           1           1           1          14
 AtmWgt=  12.0000000  12.0000000  12.0000000  12.0000000  12.0000000  12.0000000   1.0078250   1.0078250   1.0078250  14.0030740
 NucSpn=           0           0           0           0           0           0           1           1           1           2
 AtZEff=  -0.0000000  -0.0000000  -0.0000000  -0.0000000  -0.0000000  -0.0000000  -0.0000000  -0.0000000  -0.0000000  -0.0000000
 NQMom=    0.0000000   0.0000000   0.0000000   0.0000000   0.0000000   0.0000000   0.0000000   0.0000000   0.0000000   2.0440000
 NMagM=    0.0000000   0.0000000   0.0000000   0.0000000   0.0000000   0.0000000   2.7928460   2.7928460   2.7928460   0.4037610
 AtZNuc=   6.0000000   6.0000000   6.0000000   6.0000000   6.0000000   6.0000000   1.0000000   1.0000000   1.0000000   7.0000000

  Atom        41          42          43          44          45          46          47          48          49          50
 IAtWgt=          14          14          14          12           1           1          12          12          12          12
 AtmWgt=  14.0030740  14.0030740  14.0030740  12.0000000   1.0078250   1.0078250  12.0000000  12.0000000  12.0000000  12.0000000
 NucSpn=           2           2           2           0           1           1           0           0           0           0
 AtZEff=  -0.0000000  -0.0000000  -0.0000000  -0.0000000  -0.0000000  -0.0000000  -0.0000000  -0.0000000  -0.0000000  -0.0000000
 NQMom=    2.0440000   2.0440000   2.0440000   0.0000000   0.0000000   0.0000000   0.0000000   0.0000000   0.0000000   0.0000000
 NMagM=    0.4037610   0.4037610   0.4037610   0.0000000   2.7928460   2.7928460   0.0000000   0.0000000   0.0000000   0.0000000
 AtZNuc=   7.0000000   7.0000000   7.0000000   6.0000000   1.0000000   1.0000000   6.0000000   6.0000000   6.0000000   6.0000000

  Atom        51          52          53          54          55          56          57          58          59          60
 IAtWgt=           1          12           1          12           1           1           1         175          16          12
 AtmWgt=   1.0078250  12.0000000   1.0078250  12.0000000   1.0078250   1.0078250   1.0078250 174.9409000  15.9949146  12.0000000
 NucSpn=           1           0           1           0           1           1           1           7           0           0
 AtZEff=  -0.0000000  -0.0000000  -0.0000000  -0.0000000  -0.0000000  -0.0000000  -0.0000000  -0.0000000  -0.0000000  -0.0000000
 NQMom=    0.0000000   0.0000000   0.0000000   0.0000000   0.0000000   0.0000000   0.0000000 349.0000000   0.0000000   0.0000000
 NMagM=    2.7928460   0.0000000   2.7928460   0.0000000   2.7928460   2.7928460   2.7928460   2.2327000   0.0000000   0.0000000
 AtZNuc=   1.0000000   6.0000000   1.0000000   6.0000000   1.0000000   1.0000000   1.0000000  71.0000000   8.0000000   6.0000000

  Atom        61          62          63          64          65          66          67
 IAtWgt=           1           1           1          12           1           1           1
 AtmWgt=   1.0078250   1.0078250   1.0078250  12.0000000   1.0078250   1.0078250   1.0078250
 NucSpn=           1           1           1           0           1           1           1
 AtZEff=  -0.0000000  -0.0000000  -0.0000000  -0.0000000  -0.0000000  -0.0000000  -0.0000000
 NQMom=    0.0000000   0.0000000   0.0000000   0.0000000   0.0000000   0.0000000   0.0000000
 NMagM=    2.7928460   2.7928460   2.7928460   0.0000000   2.7928460   2.7928460   2.7928460
 AtZNuc=   1.0000000   1.0000000   1.0000000   6.0000000   1.0000000   1.0000000   1.0000000
 Leave Link  101 at Mon May  5 22:14:06 2025, MaxMem= 82678120448 cpu:               4.1 elap:               0.2
 (Enter /sysapps/ubuntu-applications/gaussian-new/avx/g16/l103.exe)

 GradGradGradGradGradGradGradGradGradGradGradGradGradGradGradGradGradGrad
 Berny optimization.
 Initialization pass.
 Trust Radius=3.00D-01 FncErr=1.00D-07 GrdErr=1.00D-07 EigMax=2.50D+02 EigMin=1.00D-04
 Number of steps in this run=      2 maximum allowed number of steps=      2.
 GradGradGradGradGradGradGradGradGradGradGradGradGradGradGradGradGradGrad

 Leave Link  103 at Mon May  5 22:14:06 2025, MaxMem= 82678120448 cpu:               1.6 elap:               0.2
 (Enter /sysapps/ubuntu-applications/gaussian-new/avx/g16/l202.exe)
 Stoichiometry    C22H16F9LuN4O12S3
 Framework group  C1[X(C22H16F9LuN4O12S3)]
 Deg. of freedom   195
 Full point group                 C1      NOp   1
 Largest Abelian subgroup         C1      NOp   1
 Largest concise Abelian subgroup C1      NOp   1
                         Standard orientation:                         
 ---------------------------------------------------------------------
 Center     Atomic      Atomic             Coordinates (Angstroms)
 Number     Number       Type             X           Y           Z
 ---------------------------------------------------------------------
      1          6           0        2.250325   -0.250879   -0.932708
      2          6           0        1.643123   -0.401927    0.500649
      3          6           0        1.126669    0.001289   -1.961973
      4          8           0        0.010715   -0.477557   -1.764504
      5          8           0        0.622177    0.243373    0.740982
      6          8           0       -2.967346   -1.229252   -1.239110
      7          8           0       -2.207664   -0.510468    1.853756
      8          8           0       -0.498166    2.199539   -0.999081
      9         16           0       -1.246579    3.092198   -0.062436
     10         16           0       -3.778670   -0.179182   -1.936547
     11         16           0       -1.618064   -1.892258    1.865328
     12          8           0       -2.002009    2.162437    0.841766
     13          8           0       -1.955813    4.213958   -0.615474
     14          8           0       -3.006578    1.083911   -1.713749
     15          8           0       -4.274791   -0.459867   -3.253663
     16          8           0       -0.970762   -2.050038    0.530036
     17          8           0       -0.850464   -2.271572    3.024725
     18          6           0       -3.085748   -3.015221    1.847047
     19          6           0       -5.215540    0.016107   -0.803773
     20          6           0        0.062570    3.810638    1.024414
     21          9           0       -2.708966   -4.190002    1.381175
     22          9           0       -4.035758   -2.514224    1.084492
     23          9           0       -3.528915   -3.143524    3.081680
     24          9           0       -4.729317    0.310826    0.396178
     25          9           0       -5.892787   -1.110651   -0.742685
     26          9           0       -5.993020    0.991779   -1.220807
     27          9           0        0.511955    2.891039    1.858041
     28          9           0       -0.445054    4.817191    1.704999
     29          9           0        1.055336    4.240317    0.264710
     30          6           0        4.380594    0.845791   -0.491460
     31          6           0        5.097548   -0.339178   -1.190436
     32          6           0        6.509012   -0.463020   -0.777270
     33          6           0        5.111176   -0.052620   -2.656790
     34          6           0        2.284381   -2.802224   -1.083693
     35          6           0        4.464470   -3.802278   -1.265748
     36          6           0        3.024152   -3.917683   -1.035030
     37          1           0        1.200843   -2.801947   -0.922880
     38          1           0        5.073414   -4.690370   -1.455258
     39          1           0        2.588481   -4.896867   -0.831469
     40          7           0        7.628837   -0.492992   -0.489687
     41          7           0        5.063345    0.147123   -3.796136
     42          7           0        4.348467   -1.555889   -0.914739
     43          7           0        5.089192   -2.681026   -1.210222
     44          6           0        2.984073   -1.515270   -1.442399
     45          1           0        3.029861   -1.434228   -2.553986
     46          1           0        4.852745    1.771782   -0.851719
     47          6           0        4.371694    0.852290    1.026038
     48          6           0        3.566635    1.842627    1.612108
     49          6           0        5.075900   -0.032428    1.850794
     50          6           0        3.451466    1.936474    2.997859
     51          1           0        3.016847    2.534053    0.969206
     52          6           0        4.974960    0.075805    3.239784
     53          1           0        5.682771   -0.838433    1.436129
     54          6           0        4.160600    1.052472    3.816500
     55          1           0        2.809631    2.702433    3.437709
     56          1           0        5.525892   -0.622700    3.872866
     57          1           0        4.077279    1.124629    4.903040
     58         71           0       -1.476206    0.187740   -0.189905
     59          8           0        3.064174    0.892772   -1.020416
     60          6           0        1.440841    0.813185   -3.153953
     61          1           0        1.476642    1.860039   -2.804143
     62          1           0        2.434494    0.586336   -3.564973
     63          1           0        0.646419    0.703474   -3.900923
     64          6           0        2.182842   -1.315097    1.539089
     65          1           0        3.127729   -1.794450    1.275238
     66          1           0        2.270166   -0.752170    2.482519
     67          1           0        1.402041   -2.079560    1.699352
 ---------------------------------------------------------------------
 Rotational constants (GHZ):           0.0797340           0.0396671           0.0358461
 Leave Link  202 at Mon May  5 22:14:06 2025, MaxMem= 82678120448 cpu:               2.9 elap:               0.3
 (Enter /sysapps/ubuntu-applications/gaussian-new/avx/g16/l301.exe)
 General basis read from cards:  (5D, 7F)
 Centers:      37     38     39     45     46     51     53     55     56     57
 Centers:      61     62     63     65     66     67
 S 3 1.00
     Exponent=  1.3010701000D+01 Coefficients=  1.9682158000D-02
     Exponent=  1.9622572000D+00 Coefficients=  1.3796524000D-01
     Exponent=  4.4453796000D-01 Coefficients=  4.7831935000D-01
 S 1 1.00
     Exponent=  1.2194962000D-01 Coefficients=  1.0000000000D+00
 P 1 1.00
     Exponent=  8.0000000000D-01 Coefficients=  1.0000000000D+00
 ****
 Centers:       1      2      3     18     19     20     30     31     32     33
 Centers:      34     35     36     44     47     48     49     50     52     54
 Centers:      60     64
 S 5 1.00
     Exponent=  1.2384016938D+03 Coefficients=  5.4568832082D-03
     Exponent=  1.8629004992D+02 Coefficients=  4.0638409211D-02
     Exponent=  4.2251176346D+01 Coefficients=  1.8025593888D-01
     Exponent=  1.1676557932D+01 Coefficients=  4.6315121755D-01
     Exponent=  3.5930506482D+00 Coefficients=  4.4087173314D-01
 S 1 1.00
     Exponent=  4.0245147363D-01 Coefficients=  1.0000000000D+00
 S 1 1.00
     Exponent=  1.3090182668D-01 Coefficients=  1.0000000000D+00
 P 3 1.00
     Exponent=  9.4680970621D+00 Coefficients=  3.8387871728D-02
     Exponent=  2.0103545142D+00 Coefficients=  2.1117025112D-01
     Exponent=  5.4771004707D-01 Coefficients=  5.1328172114D-01
 P 1 1.00
     Exponent=  1.5268613795D-01 Coefficients=  1.0000000000D+00
 D 1 1.00
     Exponent=  8.0000000000D-01 Coefficients=  1.0000000000D+00
 ****
 Centers:      40     41     42     43
 S 5 1.00
     Exponent=  1.7128415853D+03 Coefficients= -5.3934125305D-03
     Exponent=  2.5764812677D+02 Coefficients= -4.0221581118D-02
     Exponent=  5.8458245853D+01 Coefficients= -1.7931144990D-01
     Exponent=  1.6198367905D+01 Coefficients= -4.6376317823D-01
     Exponent=  5.0052600809D+00 Coefficients= -4.4171422662D-01
 S 1 1.00
     Exponent=  5.8731856571D-01 Coefficients=  1.0000000000D+00
 S 1 1.00
     Exponent=  1.8764592253D-01 Coefficients=  1.0000000000D+00
 P 3 1.00
     Exponent=  1.3571470233D+01 Coefficients= -4.0072398852D-02
     Exponent=  2.9257372874D+00 Coefficients= -2.1807045028D-01
     Exponent=  7.9927750754D-01 Coefficients= -5.1294466049D-01
 P 1 1.00
     Exponent=  2.1954348034D-01 Coefficients=  1.0000000000D+00
 D 1 1.00
     Exponent=  1.0000000000D+00 Coefficients=  1.0000000000D+00
 ****
 Centers:       4      5      6      7      8     12     13     14     15     16
 Centers:      17     59
 S 5 1.00
     Exponent=  2.2661767785D+03 Coefficients= -5.3431809926D-03
     Exponent=  3.4087010191D+02 Coefficients= -3.9890039230D-02
     Exponent=  7.7363135167D+01 Coefficients= -1.7853911985D-01
     Exponent=  2.1479644940D+01 Coefficients= -4.6427684959D-01
     Exponent=  6.6589433124D+00 Coefficients= -4.4309745172D-01
 S 1 1.00
     Exponent=  8.0975975668D-01 Coefficients=  1.0000000000D+00
 S 1 1.00
     Exponent=  2.5530772234D-01 Coefficients=  1.0000000000D+00
 P 3 1.00
     Exponent=  1.7721504317D+01 Coefficients=  4.3394573193D-02
     Exponent=  3.8635505440D+00 Coefficients=  2.3094120765D-01
     Exponent=  1.0480920883D+00 Coefficients=  5.1375311064D-01
 P 1 1.00
     Exponent=  2.7641544411D-01 Coefficients=  1.0000000000D+00
 D 1 1.00
     Exponent=  1.2000000000D+00 Coefficients=  1.0000000000D+00
 ****
 Centers:      21     22     23     24     25     26     27     28     29
 S 5 1.00
     Exponent=  2.8948325990D+03 Coefficients= -5.3408255515D-03
     Exponent=  4.3541939120D+02 Coefficients= -3.9904258866D-02
     Exponent=  9.8843328866D+01 Coefficients= -1.7912768038D-01
     Exponent=  2.7485198001D+01 Coefficients= -4.6758090825D-01
     Exponent=  8.5405498171D+00 Coefficients= -4.4653131020D-01
 S 1 1.00
     Exponent=  1.0654578038D+00 Coefficients=  1.0000000000D+00
 S 1 1.00
     Exponent=  3.3247346748D-01 Coefficients=  1.0000000000D+00
 P 3 1.00
     Exponent=  2.2696633924D+01 Coefficients= -4.5212874436D-02
     Exponent=  4.9872339257D+00 Coefficients= -2.3754317067D-01
     Exponent=  1.3491613954D+00 Coefficients= -5.1287353587D-01
 P 1 1.00
     Exponent=  3.4829881977D-01 Coefficients=  1.0000000000D+00
 D 1 1.00
     Exponent=  1.4000000000D+00 Coefficients=  1.0000000000D+00
 ****
 Centers:       9     10     11
 S 5 1.00
     Exponent=  9.1849303010D+03 Coefficients= -2.2294387756D-03
     Exponent=  1.3815105503D+03 Coefficients= -1.6683029937D-02
     Exponent=  3.1387147580D+02 Coefficients= -7.5262436116D-02
     Exponent=  8.8053870623D+01 Coefficients= -1.9376827038D-01
     Exponent=  2.7039914905D+01 Coefficients= -1.7718020803D-01
 S 3 1.00
     Exponent=  4.5648731303D+01 Coefficients= -1.0736062573D-01
     Exponent=  4.9664522326D+00 Coefficients=  6.5066293018D-01
     Exponent=  2.0116242047D+00 Coefficients=  5.9712155354D-01
 S 1 1.00
     Exponent=  3.5661077013D-01 Coefficients=  1.0000000000D+00
 S 1 1.00
     Exponent=  1.3507221477D-01 Coefficients=  1.0000000000D+00
 P 5 1.00
     Exponent=  2.6198233439D+02 Coefficients= -9.2729929822D-03
     Exponent=  6.1306894736D+01 Coefficients= -6.6547669241D-02
     Exponent=  1.9103729887D+01 Coefficients= -2.4828595903D-01
     Exponent=  6.6567720378D+00 Coefficients= -4.8703847402D-01
     Exponent=  2.3959635161D+00 Coefficients= -3.9337850312D-01
 P 1 1.00
     Exponent=  6.1776161679D-01 Coefficients=  1.0000000000D+00
 P 1 1.00
     Exponent=  1.6993376871D-01 Coefficients=  1.0000000000D+00
 D 1 1.00
     Exponent=  5.5000000000D-01 Coefficients=  1.0000000000D+00
 ****
 Centers:      58
 S 5 1.00
     Exponent=  9.5169767000D+04 Coefficients=  2.2000000000D-05
     Exponent=  1.5488403000D+04 Coefficients=  1.4500000000D-04
     Exponent=  3.7762335000D+03 Coefficients=  6.5100000000D-04
     Exponent=  1.0790501000D+03 Coefficients=  2.0380000000D-03
     Exponent=  2.6895380000D+02 Coefficients=  5.1270000000D-03
 S 1 1.00
     Exponent=  6.3467900000D+01 Coefficients=  1.0000000000D+00
 S 1 1.00
     Exponent=  4.5133200000D+01 Coefficients=  1.0000000000D+00
 S 1 1.00
     Exponent=  2.1456800000D+01 Coefficients=  1.0000000000D+00
 S 1 1.00
     Exponent=  5.3483000000D+00 Coefficients=  1.0000000000D+00
 S 1 1.00
     Exponent=  2.6778000000D+00 Coefficients=  1.0000000000D+00
 S 1 1.00
     Exponent=  1.0287000000D+00 Coefficients=  1.0000000000D+00
 S 1 1.00
     Exponent=  4.4080000000D-01 Coefficients=  1.0000000000D+00
 S 1 1.00
     Exponent=  7.9100000000D-02 Coefficients=  1.0000000000D+00
 S 1 1.00
     Exponent=  3.1300000000D-02 Coefficients=  1.0000000000D+00
 P 3 1.00
     Exponent=  1.2333733920D+01 Coefficients= -1.5313031066D-01
     Exponent=  1.1080331415D+01 Coefficients= -2.0300664852D-01
     Exponent=  2.0341747228D+00 Coefficients= -1.9458361263D-01
 P 6 1.00
     Exponent=  1.5005317313D+03 Coefficients= -1.0192569555D-03
     Exponent=  3.8239748937D+02 Coefficients= -5.9476212135D-03
     Exponent=  1.3299969628D+02 Coefficients= -1.6265160929D-02
     Exponent=  4.6110032419D+01 Coefficients= -3.5623845839D-02
     Exponent=  1.5583529011D+01 Coefficients=  2.3709171074D-01
     Exponent=  5.7856677022D+00 Coefficients= -3.0670977844D-01
 P 1 1.00
     Exponent=  3.7823361008D+00 Coefficients=  1.0000000000D+00
 P 1 1.00
     Exponent=  1.3682592248D+00 Coefficients=  1.0000000000D+00
 P 1 1.00
     Exponent=  5.7288205601D-01 Coefficients=  1.0000000000D+00
 P 1 1.00
     Exponent=  2.2793165135D-01 Coefficients=  1.0000000000D+00
 P 1 1.00
     Exponent=  8.1403917986D-02 Coefficients=  1.0000000000D+00
 P 1 1.00
     Exponent=  2.9091071778D-02 Coefficients=  1.0000000000D+00
 D 6 1.00
     Exponent=  4.8452750000D+02 Coefficients=  2.2860000000D-03
     Exponent=  1.4666550000D+02 Coefficients=  1.8629000000D-02
     Exponent=  5.6377900000D+01 Coefficients=  7.4088000000D-02
     Exponent=  2.3671100000D+01 Coefficients=  1.6155400000D-01
     Exponent=  9.4401000000D+00 Coefficients=  3.0809100000D-01
     Exponent=  4.3712000000D+00 Coefficients=  4.4833400000D-01
 D 1 1.00
     Exponent=  1.9580000000D+00 Coefficients=  1.0000000000D+00
 D 1 1.00
     Exponent=  7.2720000000D-01 Coefficients=  1.0000000000D+00
 D 1 1.00
     Exponent=  2.4600000000D-01 Coefficients=  1.0000000000D+00
 D 1 1.00
     Exponent=  7.4400000000D-02 Coefficients=  1.0000000000D+00
 F 5 1.00
     Exponent=  1.7515590000D+02 Coefficients=  4.1020000000D-03
     Exponent=  6.2890900000D+01 Coefficients=  3.9086000000D-02
     Exponent=  2.8362400000D+01 Coefficients=  1.4704400000D-01
     Exponent=  1.3247800000D+01 Coefficients=  2.7109200000D-01
     Exponent=  6.1440000000D+00 Coefficients=  3.4566500000D-01
 F 1 1.00
     Exponent=  2.7623000000D+00 Coefficients=  1.0000000000D+00
 F 1 1.00
     Exponent=  1.1574000000D+00 Coefficients=  1.0000000000D+00
 F 1 1.00
     Exponent=  4.2440000000D-01 Coefficients=  1.0000000000D+00
 G 1 1.00
     Exponent=  7.0090000000D-01 Coefficients=  1.0000000000D+00
 ****
 ======================================================================================================
                                       Pseudopotential Parameters
 ======================================================================================================
  Center     Atomic      Valence      Angular      Power
  Number     Number     Electrons     Momentum     of R      Exponent        Coefficient   SO-Coeffient
 ======================================================================================================
    1          6
                                   No pseudopotential on this center.
    2          6
                                   No pseudopotential on this center.
    3          6
                                   No pseudopotential on this center.
    4          8
                                   No pseudopotential on this center.
    5          8
                                   No pseudopotential on this center.
    6          8
                                   No pseudopotential on this center.
    7          8
                                   No pseudopotential on this center.
    8          8
                                   No pseudopotential on this center.
    9         16
                                   No pseudopotential on this center.
   10         16
                                   No pseudopotential on this center.
   11         16
                                   No pseudopotential on this center.
   12          8
                                   No pseudopotential on this center.
   13          8
                                   No pseudopotential on this center.
   14          8
                                   No pseudopotential on this center.
   15          8
                                   No pseudopotential on this center.
   16          8
                                   No pseudopotential on this center.
   17          8
                                   No pseudopotential on this center.
   18          6
                                   No pseudopotential on this center.
   19          6
                                   No pseudopotential on this center.
   20          6
                                   No pseudopotential on this center.
   21          9
                                   No pseudopotential on this center.
   22          9
                                   No pseudopotential on this center.
   23          9
                                   No pseudopotential on this center.
   24          9
                                   No pseudopotential on this center.
   25          9
                                   No pseudopotential on this center.
   26          9
                                   No pseudopotential on this center.
   27          9
                                   No pseudopotential on this center.
   28          9
                                   No pseudopotential on this center.
   29          9
                                   No pseudopotential on this center.
   30          6
                                   No pseudopotential on this center.
   31          6
                                   No pseudopotential on this center.
   32          6
                                   No pseudopotential on this center.
   33          6
                                   No pseudopotential on this center.
   34          6
                                   No pseudopotential on this center.
   35          6
                                   No pseudopotential on this center.
   36          6
                                   No pseudopotential on this center.
   37          1
                                   No pseudopotential on this center.
   38          1
                                   No pseudopotential on this center.
   39          1
                                   No pseudopotential on this center.
   40          7
                                   No pseudopotential on this center.
   41          7
                                   No pseudopotential on this center.
   42          7
                                   No pseudopotential on this center.
   43          7
                                   No pseudopotential on this center.
   44          6
                                   No pseudopotential on this center.
   45          1
                                   No pseudopotential on this center.
   46          1
                                   No pseudopotential on this center.
   47          6
                                   No pseudopotential on this center.
   48          6
                                   No pseudopotential on this center.
   49          6
                                   No pseudopotential on this center.
   50          6
                                   No pseudopotential on this center.
   51          1
                                   No pseudopotential on this center.
   52          6
                                   No pseudopotential on this center.
   53          1
                                   No pseudopotential on this center.
   54          6
                                   No pseudopotential on this center.
   55          1
                                   No pseudopotential on this center.
   56          1
                                   No pseudopotential on this center.
   57          1
                                   No pseudopotential on this center.
   58         71           43
                                      H and up 
                                                     2        1.0000000        0.00000000    0.00000000
                                      S - H
                                                     2       35.1620970      989.99558400    0.00000000
                                      P - H
                                                     2       19.4644020      278.86565200    0.00000000
                                      D - H
                                                     2       10.0068650       71.00917800    0.00000000
                                      F - H
                                                     2       23.5179320      -47.40589000    0.00000000
                                      G - H
                                                     2       29.4122380      -35.55714600    0.00000000
   59          8
                                   No pseudopotential on this center.
   60          6
                                   No pseudopotential on this center.
   61          1
                                   No pseudopotential on this center.
   62          1
                                   No pseudopotential on this center.
   63          1
                                   No pseudopotential on this center.
   64          6
                                   No pseudopotential on this center.
   65          1
                                   No pseudopotential on this center.
   66          1
                                   No pseudopotential on this center.
   67          1
                                   No pseudopotential on this center.
 ======================================================================================================
 Ernie: Thresh=  0.10000D-02 Tol=  0.10000D-05 Strict=F.
 There are   961 symmetry adapted cartesian basis functions of A   symmetry.
 There are   888 symmetry adapted basis functions of A   symmetry.
   888 basis functions,  1612 primitive gaussians,   961 cartesian basis functions
   222 alpha electrons      222 beta electrons
       nuclear repulsion energy     11188.4189566653 Hartrees.
 IExCor= 7252 DFT=T Ex+Corr=MN15 ExCW=0 ScaHFX=  0.440000
 ScaDFX=  1.000000  1.000000  1.000000  1.000000 ScalE2=  1.000000  1.000000
 IRadAn=      5 IRanWt=     -1 IRanGd=            0 ICorTp=0 IEmpDi=  4
 NAtoms=   67 NActive=   67 NUniq=   67 SFac= 1.00D+00 NAtFMM=   60 NAOKFM=T Big=T
 Integral buffers will be    131072 words long.
 Raffenetti 2 integral format.
 Two-electron integral symmetry is turned on.
 Force inversion solution in PCM.
 ------------------------------------------------------------------------------
 Polarizable Continuum Model (PCM)
 =================================
 Model                : PCM.
 Atomic radii         : SMD-Coulomb.
 Polarization charges : Total charges.
 Charge compensation  : None.
 Solution method      : Matrix inversion.
 Cavity type          : VdW (van der Waals Surface) (Alpha=1.000).
 Cavity algorithm     : GePol (No added spheres)
                        Default sphere list used, NSphG=   67.
                        Lebedev-Laikov grids with approx.  5.0 points / Ang**2.
                        Smoothing algorithm: York/Karplus (Gamma=1.0000).
                        Polarization charges: spherical gaussians, with
                                              point-specific exponents (IZeta= 3).
                        Self-potential: point-specific (ISelfS= 7).
                        Self-field    : sphere-specific E.n sum rule (ISelfD= 2).
 1st derivatives      : Analytical E(r).r(x)/FMM algorithm (CHGder, D1EAlg=3).
                        Cavity 1st derivative terms included.
 2nd derivatives      : Analytical E(r).r(xy)/FMM algorithm (CHGder, D2EAlg=3).
                        Cavity 2nd derivative terms included.
 Solvent              : DiChloroEthane, Eps=  10.125000 Eps(inf)=   2.087447
 ------------------------------------------------------------------------------
 GePol: Number of generator spheres                  =      67
 GePol: Total number of spheres                      =      67
 GePol: Number of exposed spheres                    =      66 ( 98.51%)
 GePol: Number of points                             =    4676
 GePol: Average weight of points                     =       0.13
 GePol: Minimum weight of points                     =   0.20D-11
 GePol: Maximum weight of points                     =    0.21501
 GePol: Number of points with low weight             =     303
 GePol: Fraction of low-weight points (<1% of avg)   =       6.48%
 GePol: Cavity surface area                          =    601.297 Ang**2
 GePol: Cavity volume                                =    739.395 Ang**3
 ------------------------------------------------------------------------------
 Atomic radii for non-electrostatic terms: SMD-CDS.
 ------------------------------------------------------------------------------
 PCM non-electrostatic energy =         0.0048190555 Hartrees.
 Nuclear repulsion after PCM non-electrostatic terms =    11188.4237757208 Hartrees.
 Leave Link  301 at Mon May  5 22:14:07 2025, MaxMem= 82678120448 cpu:               5.0 elap:               0.3
 (Enter /sysapps/ubuntu-applications/gaussian-new/avx/g16/l302.exe)
 NPDir=0 NMtPBC=     1 NCelOv=     1 NCel=       1 NClECP=     1 NCelD=      1
         NCelK=      1 NCelE2=     1 NClLst=     1 CellRange=     0.0.
 One-electron integrals computed using PRISM.
 One-electron integral symmetry used in STVInt
   1 Symmetry operations used in ECPInt.
 ECPInt:  NShTT=   73153 NPrTT=  279412 LenC2=   57907 LenP2D=  135975.
 LDataN:  DoStor=T MaxTD1= 9 Len=  602
 NBasis=   888 RedAO= T EigKep=  2.12D-04  NBF=   888
 NBsUse=   888 1.00D-06 EigRej= -1.00D+00 NBFU=   888
 Precomputing XC quadrature grid using
 IXCGrd= 4 IRadAn=           5 IRanWt=          -1 IRanGd=           0 AccXCQ= 0.00D+00.
 Defaulting to unpruned grid for atomic number  71.
 Generated NRdTot=       0 NPtTot=           0 NUsed=           0 NTot=          32
 NSgBfM=   910   907   910   910   910 MxSgAt=    67 MxSgA2=    67.
 Leave Link  302 at Mon May  5 22:14:10 2025, MaxMem= 82678120448 cpu:              73.0 elap:               3.2
 (Enter /sysapps/ubuntu-applications/gaussian-new/avx/g16/l303.exe)
 DipDrv:  MaxL=1.
 Leave Link  303 at Mon May  5 22:14:10 2025, MaxMem= 82678120448 cpu:               5.3 elap:               0.3
 (Enter /sysapps/ubuntu-applications/gaussian-new/avx/g16/l401.exe)
 ExpMin= 2.91D-02 ExpMax= 9.52D+04 ExpMxC= 1.55D+04 IAcc=3 IRadAn=         5 AccDes= 0.00D+00
 Harris functional with IExCor= 1009 and IRadAn=       5 diagonalized for initial guess.
 HarFok:  IExCor= 1009 AccDes= 0.00D+00 IRadAn=         5 IDoV= 1 UseB2=F ITyADJ=14
 ICtDFT=  3500011 ScaDFX=  1.000000  1.000000  1.000000  1.000000
 Defaulting to unpruned grid for atomic number  71.
 FoFCou: FMM=F IPFlag=           0 FMFlag=      100000 FMFlg1=        2001
         NFxFlg=           0 DoJE=T BraDBF=F KetDBF=T FulRan=T
         wScrn=  0.000000 ICntrl=       500 IOpCl=  0 I1Cent=   200000004 NGrid=           0
         NMat0=    1 NMatS0=      1 NMatT0=    0 NMatD0=    1 NMtDS0=    0 NMtDT0=    0
 Petite list used in FoFCou.
 Harris En= -5296.71058221323    
 JPrj=0 DoOrth=F DoCkMO=F.
 Initial guess <Sx>= 0.0000 <Sy>= 0.0000 <Sz>= 0.0000 <S**2>=-0.0000 S=-0.0000
 Leave Link  401 at Mon May  5 22:14:18 2025, MaxMem= 82678120448 cpu:             183.4 elap:               7.8
 (Enter /sysapps/ubuntu-applications/gaussian-new/avx/g16/l502.exe)
 Integral symmetry usage will be decided dynamically.
 UHF open shell SCF:
 Using DIIS extrapolation, IDIIS=  1040.
 NGot= 82678120448 LenX= 82676240119 LenY= 82675315637
 Requested convergence on RMS density matrix=1.00D-08 within 500 cycles.
 Requested convergence on MAX density matrix=1.00D-06.
 Requested convergence on             energy=1.00D-06.
 No special actions if energy rises.
 Fock matrices will be formed incrementally for  20 cycles.

 Cycle   1  Pass 1  IDiag  1:
 FoFJK:  IHMeth= 1 ICntrl=       0 DoSepK=F KAlg= 0 I1Cent=           0 FoldK=F
 IRaf= 880000000 NMat=       1 IRICut=       1 DoRegI=T DoRafI=F ISym2E= 0 IDoP0=0 IntGTp=1.
 FoFCou: FMM=T IPFlag=           0 FMFlag=      100000 FMFlg1=        2001
         NFxFlg=           0 DoJE=F BraDBF=F KetDBF=F FulRan=T
         wScrn=  0.000000 ICntrl=         0 IOpCl=  1 I1Cent=           0 NGrid=           0
         NMat0=    1 NMatS0=      1 NMatT0=    0 NMatD0=    1 NMtDS0=    0 NMtDT0=    0
 Symmetry not used in FoFCou.
 FMM levels:  10  Number of levels for PrismC:   9
 Defaulting to unpruned grid for atomic number  71.
 Defaulting to unpruned grid for atomic number  71.
 Defaulting to unpruned grid for atomic number  71.
 Defaulting to unpruned grid for atomic number  71.
 Defaulting to unpruned grid for atomic number  71.
 Defaulting to unpruned grid for atomic number  71.
 Defaulting to unpruned grid for atomic number  71.
 Defaulting to unpruned grid for atomic number  71.
 Defaulting to unpruned grid for atomic number  71.
 Defaulting to unpruned grid for atomic number  71.
 Defaulting to unpruned grid for atomic number  71.
 Defaulting to unpruned grid for atomic number  71.
 Defaulting to unpruned grid for atomic number  71.
 Defaulting to unpruned grid for atomic number  71.
 Defaulting to unpruned grid for atomic number  71.
 Defaulting to unpruned grid for atomic number  71.
 Defaulting to unpruned grid for atomic number  71.
 Defaulting to unpruned grid for atomic number  71.
 Defaulting to unpruned grid for atomic number  71.
 Defaulting to unpruned grid for atomic number  71.
 Defaulting to unpruned grid for atomic number  71.
 Defaulting to unpruned grid for atomic number  71.
 Defaulting to unpruned grid for atomic number  71.
 Defaulting to unpruned grid for atomic number  71.
 Inv3:  Mode=1 IEnd=    65594928.
 Iteration    1 A*A^-1 deviation from unit magnitude is 6.88D-15 for   4675.
 Iteration    1 A*A^-1 deviation from orthogonality  is 4.81D-15 for   4659   3990.
 Iteration    1 A^-1*A deviation from unit magnitude is 6.88D-15 for   4675.
 Iteration    1 A^-1*A deviation from orthogonality  is 1.44D-14 for   1509   1499.
 E= -5291.05254454025    
 DIIS: error= 2.03D-01 at cycle   1 NSaved=   1.
 NSaved= 1 IEnMin= 1 EnMin= -5291.05254454025     IErMin= 1 ErrMin= 2.03D-01
 ErrMax= 2.03D-01  0.00D+00 EMaxC= 1.00D-01 BMatC= 1.56D+02 BMatP= 1.56D+02
 IDIUse=3 WtCom= 0.00D+00 WtEn= 1.00D+00
 Coeff-Com:  0.100D+01
 Coeff-En:   0.100D+01
 Coeff:      0.100D+01
 Gap=     0.278 Goal=   None    Shift=    0.000
 Gap=     0.278 Goal=   None    Shift=    0.000
 GapD=    0.278 DampG=1.000 DampE=0.125 DampFc=0.1250 IDamp=-1.
 Damping current iteration by 1.25D-01
 RMSDP=1.03D-02 MaxDP=1.27D+00              OVMax= 9.89D-01

 Cycle   2  Pass 1  IDiag  1:
 RMSU=  1.29D-03    CP:  9.93D-01
 E= -5291.73663666757     Delta-E=       -0.684092127327 Rises=F Damp=T
 DIIS: error= 8.05D-02 at cycle   2 NSaved=   2.
 NSaved= 2 IEnMin= 2 EnMin= -5291.73663666757     IErMin= 2 ErrMin= 8.05D-02
 ErrMax= 8.05D-02  0.00D+00 EMaxC= 1.00D-01 BMatC= 3.23D+01 BMatP= 1.56D+02
 IDIUse=3 WtCom= 1.95D-01 WtEn= 8.05D-01
 Coeff-Com: -0.622D+00 0.162D+01
 Coeff-En:   0.378D+00 0.622D+00
 Coeff:      0.183D+00 0.817D+00
 Gap=     0.021 Goal=   None    Shift=    0.000
 Gap=     0.021 Goal=   None    Shift=    0.000
 RMSDP=3.84D-03 MaxDP=5.39D-01 DE=-6.84D-01 OVMax= 9.84D-01

 Cycle   3  Pass 1  IDiag  1:
 RMSU=  3.82D-03    CP:  9.69D-01  1.03D+00
 E= -5281.90250203770     Delta-E=        9.834134629877 Rises=F Damp=F
 DIIS: error= 1.17D-01 at cycle   3 NSaved=   3.
 NSaved= 3 IEnMin= 2 EnMin= -5291.73663666757     IErMin= 2 ErrMin= 8.05D-02
 ErrMax= 1.17D-01  0.00D+00 EMaxC= 1.00D-01 BMatC= 8.01D+01 BMatP= 3.23D+01
 IDIUse=2 WtCom= 0.00D+00 WtEn= 1.00D+00
 EnCoef did     2 forward-backward iterations
 Coeff-En:   0.228D+00 0.577D+00 0.195D+00
 Coeff:      0.228D+00 0.577D+00 0.195D+00
 Gap=     0.049 Goal=   None    Shift=    0.000
 Gap=     0.049 Goal=   None    Shift=    0.000
 RMSDP=3.05D-03 MaxDP=4.15D-01 DE= 9.83D+00 OVMax= 8.69D-01

 Cycle   4  Pass 1  IDiag  1:
 RMSU=  1.95D-03    CP:  9.72D-01  8.90D-01  3.88D-01
 E= -5294.09878818661     Delta-E=      -12.196286148912 Rises=F Damp=F
 DIIS: error= 1.22D-01 at cycle   4 NSaved=   4.
 NSaved= 4 IEnMin= 4 EnMin= -5294.09878818661     IErMin= 2 ErrMin= 8.05D-02
 ErrMax= 1.22D-01  0.00D+00 EMaxC= 1.00D-01 BMatC= 6.27D+01 BMatP= 3.23D+01
 IDIUse=2 WtCom= 0.00D+00 WtEn= 1.00D+00
 EnCoef did   100 forward-backward iterations
 Coeff-En:   0.315D+00 0.352D-02 0.000D+00 0.681D+00
 Coeff:      0.315D+00 0.352D-02 0.000D+00 0.681D+00
 Gap=     0.869 Goal=   None    Shift=    0.000
 Gap=     0.869 Goal=   None    Shift=    0.000
 RMSDP=1.64D-03 MaxDP=2.39D-01 DE=-1.22D+01 OVMax= 1.15D-01

 Cycle   5  Pass 1  IDiag  1:
 RMSU=  9.55D-04    CP:  9.82D-01  5.33D-01  3.25D-01  3.75D-01
 E= -5295.52781162895     Delta-E=       -1.429023442342 Rises=F Damp=F
 DIIS: error= 5.48D-02 at cycle   5 NSaved=   5.
 NSaved= 5 IEnMin= 5 EnMin= -5295.52781162895     IErMin= 5 ErrMin= 5.48D-02
 ErrMax= 5.48D-02  0.00D+00 EMaxC= 1.00D-01 BMatC= 1.22D+01 BMatP= 3.23D+01
 IDIUse=3 WtCom= 4.52D-01 WtEn= 5.48D-01
 Coeff-Com: -0.591D-02 0.121D+00 0.471D-02 0.311D+00 0.569D+00
 Coeff-En:   0.000D+00 0.000D+00 0.000D+00 0.246D+00 0.754D+00
 Coeff:     -0.267D-02 0.546D-01 0.213D-02 0.275D+00 0.671D+00
 Gap=     0.246 Goal=   None    Shift=    0.000
 Gap=     0.246 Goal=   None    Shift=    0.000
 RMSDP=9.06D-04 MaxDP=9.95D-02 DE=-1.43D+00 OVMax= 6.96D-02

 Cycle   6  Pass 1  IDiag  1:
 RMSU=  3.93D-04    CP:  9.79D-01  6.05D-01  2.98D-01  6.50D-01  3.75D-01
 E= -5295.91434579643     Delta-E=       -0.386534167479 Rises=F Damp=F
 DIIS: error= 1.18D-02 at cycle   6 NSaved=   6.
 NSaved= 6 IEnMin= 6 EnMin= -5295.91434579643     IErMin= 6 ErrMin= 1.18D-02
 ErrMax= 1.18D-02  0.00D+00 EMaxC= 1.00D-01 BMatC= 9.16D-01 BMatP= 1.22D+01
 IDIUse=3 WtCom= 8.82D-01 WtEn= 1.18D-01
 Coeff-Com: -0.794D-01 0.926D-01 0.219D-02 0.779D-01 0.434D+00 0.473D+00
 Coeff-En:   0.000D+00 0.000D+00 0.000D+00 0.000D+00 0.158D+00 0.842D+00
 Coeff:     -0.700D-01 0.817D-01 0.193D-02 0.687D-01 0.401D+00 0.517D+00
 Gap=     0.205 Goal=   None    Shift=    0.000
 Gap=     0.205 Goal=   None    Shift=    0.000
 RMSDP=4.09D-04 MaxDP=4.84D-02 DE=-3.87D-01 OVMax= 3.20D-02

 Cycle   7  Pass 1  IDiag  1:
 RMSU=  1.46D-04    CP:  9.80D-01  5.96D-01  3.22D-01  5.58D-01  6.06D-01
                    CP:  3.99D-01
 E= -5295.98463801090     Delta-E=       -0.070292214466 Rises=F Damp=F
 DIIS: error= 6.73D-03 at cycle   7 NSaved=   7.
 NSaved= 7 IEnMin= 7 EnMin= -5295.98463801090     IErMin= 7 ErrMin= 6.73D-03
 ErrMax= 6.73D-03  0.00D+00 EMaxC= 1.00D-01 BMatC= 2.25D-01 BMatP= 9.16D-01
 IDIUse=3 WtCom= 9.33D-01 WtEn= 6.73D-02
 Coeff-Com: -0.650D-01 0.834D-01 0.101D-02 0.258D-01 0.174D+00 0.285D+00
 Coeff-Com:  0.496D+00
 Coeff-En:   0.000D+00 0.000D+00 0.000D+00 0.000D+00 0.000D+00 0.140D+00
 Coeff-En:   0.860D+00
 Coeff:     -0.606D-01 0.777D-01 0.942D-03 0.241D-01 0.162D+00 0.275D+00
 Coeff:      0.521D+00
 Gap=     0.201 Goal=   None    Shift=    0.000
 Gap=     0.201 Goal=   None    Shift=    0.000
 RMSDP=8.95D-05 MaxDP=7.56D-03 DE=-7.03D-02 OVMax= 6.35D-03

 Cycle   8  Pass 1  IDiag  1:
 RMSU=  3.39D-05    CP:  9.79D-01  5.97D-01  3.19D-01  5.62D-01  6.15D-01
                    CP:  5.28D-01  5.68D-01
 E= -5295.99288223727     Delta-E=       -0.008244226376 Rises=F Damp=F
 DIIS: error= 5.35D-03 at cycle   8 NSaved=   8.
 NSaved= 8 IEnMin= 8 EnMin= -5295.99288223727     IErMin= 8 ErrMin= 5.35D-03
 ErrMax= 5.35D-03  0.00D+00 EMaxC= 1.00D-01 BMatC= 1.20D-01 BMatP= 2.25D-01
 IDIUse=3 WtCom= 9.46D-01 WtEn= 5.35D-02
 Coeff-Com: -0.474D-01 0.720D-01-0.314D-03 0.254D-01 0.647D-01 0.979D-01
 Coeff-Com:  0.185D+00 0.603D+00
 Coeff-En:   0.000D+00 0.000D+00 0.000D+00 0.000D+00 0.000D+00 0.000D+00
 Coeff-En:   0.000D+00 0.100D+01
 Coeff:     -0.448D-01 0.681D-01-0.297D-03 0.240D-01 0.613D-01 0.927D-01
 Coeff:      0.175D+00 0.624D+00
 Gap=     0.202 Goal=   None    Shift=    0.000
 Gap=     0.202 Goal=   None    Shift=    0.000
 RMSDP=2.01D-05 MaxDP=3.04D-03 DE=-8.24D-03 OVMax= 1.97D-03

 Cycle   9  Pass 1  IDiag  1:
 RMSU=  1.50D-05    CP:  9.79D-01  5.98D-01  3.19D-01  5.65D-01  6.11D-01
                    CP:  5.27D-01  6.30D-01  8.09D-01
 E= -5295.99458345698     Delta-E=       -0.001701219711 Rises=F Damp=F
 DIIS: error= 4.53D-03 at cycle   9 NSaved=   9.
 NSaved= 9 IEnMin= 9 EnMin= -5295.99458345698     IErMin= 9 ErrMin= 4.53D-03
 ErrMax= 4.53D-03  0.00D+00 EMaxC= 1.00D-01 BMatC= 8.65D-02 BMatP= 1.20D-01
 IDIUse=3 WtCom= 9.55D-01 WtEn= 4.53D-02
 Coeff-Com: -0.301D-01 0.550D-01-0.118D-02 0.238D-01 0.247D-02-0.331D-01
 Coeff-Com: -0.153D+00-0.195D-01 0.116D+01
 Coeff-En:   0.000D+00 0.000D+00 0.000D+00 0.000D+00 0.000D+00 0.000D+00
 Coeff-En:   0.000D+00 0.000D+00 0.100D+01
 Coeff:     -0.287D-01 0.525D-01-0.112D-02 0.228D-01 0.236D-02-0.316D-01
 Coeff:     -0.146D+00-0.186D-01 0.115D+01
 Gap=     0.204 Goal=   None    Shift=    0.000
 Gap=     0.204 Goal=   None    Shift=    0.000
 RMSDP=2.56D-05 MaxDP=4.48D-03 DE=-1.70D-03 OVMax= 3.24D-03

 Cycle  10  Pass 1  IDiag  1:
 RMSU=  1.83D-05    CP:  9.79D-01  6.01D-01  3.18D-01  5.71D-01  6.03D-01
                    CP:  5.33D-01  6.17D-01  1.09D+00  7.72D-01
 E= -5295.99659759561     Delta-E=       -0.002014138629 Rises=F Damp=F
 DIIS: error= 3.51D-03 at cycle  10 NSaved=  10.
 NSaved=10 IEnMin=10 EnMin= -5295.99659759561     IErMin=10 ErrMin= 3.51D-03
 ErrMax= 3.51D-03  0.00D+00 EMaxC= 1.00D-01 BMatC= 5.18D-02 BMatP= 8.65D-02
 IDIUse=3 WtCom= 9.65D-01 WtEn= 3.51D-02
 Coeff-Com: -0.114D-01 0.243D-01-0.178D-02 0.146D-01-0.834D-02-0.720D-01
 Coeff-Com: -0.329D+00-0.121D+01 0.134D+01 0.126D+01
 Coeff-En:   0.000D+00 0.000D+00 0.000D+00 0.000D+00 0.000D+00 0.000D+00
 Coeff-En:   0.000D+00 0.000D+00 0.000D+00 0.100D+01
 Coeff:     -0.110D-01 0.235D-01-0.172D-02 0.140D-01-0.805D-02-0.695D-01
 Coeff:     -0.317D+00-0.117D+01 0.129D+01 0.125D+01
 Gap=     0.205 Goal=   None    Shift=    0.000
 Gap=     0.205 Goal=   None    Shift=    0.000
 RMSDP=3.56D-05 MaxDP=7.55D-03 DE=-2.01D-03 OVMax= 3.02D-03

 Cycle  11  Pass 1  IDiag  1:
 RMSU=  1.85D-05    CP:  9.79D-01  6.02D-01  3.16D-01  5.78D-01  5.97D-01
                    CP:  5.35D-01  6.20D-01  1.33D+00  2.22D+00  1.23D+00
 E= -5295.99900667731     Delta-E=       -0.002409081697 Rises=F Damp=F
 DIIS: error= 1.57D-03 at cycle  11 NSaved=  11.
 NSaved=11 IEnMin=11 EnMin= -5295.99900667731     IErMin=11 ErrMin= 1.57D-03
 ErrMax= 1.57D-03  0.00D+00 EMaxC= 1.00D-01 BMatC= 1.03D-02 BMatP= 5.18D-02
 IDIUse=3 WtCom= 9.84D-01 WtEn= 1.57D-02
 Coeff-Com: -0.336D-02 0.528D-02-0.577D-03 0.430D-02 0.126D-01-0.318D-02
 Coeff-Com: -0.105D+00-0.862D+00 0.230D+00 0.854D+00 0.869D+00
 Coeff-En:   0.000D+00 0.000D+00 0.000D+00 0.000D+00 0.000D+00 0.000D+00
 Coeff-En:   0.000D+00 0.000D+00 0.000D+00 0.000D+00 0.100D+01
 Coeff:     -0.331D-02 0.519D-02-0.568D-03 0.423D-02 0.124D-01-0.313D-02
 Coeff:     -0.103D+00-0.849D+00 0.226D+00 0.840D+00 0.871D+00
 Gap=     0.206 Goal=   None    Shift=    0.000
 Gap=     0.206 Goal=   None    Shift=    0.000
 RMSDP=2.63D-05 MaxDP=4.96D-03 DE=-2.41D-03 OVMax= 2.53D-03

 Cycle  12  Pass 1  IDiag  1:
 RMSU=  1.03D-05    CP:  9.79D-01  6.06D-01  3.15D-01  5.86D-01  5.88D-01
                    CP:  5.37D-01  6.04D-01  1.46D+00  2.89D+00  1.89D+00
                    CP:  9.27D-01
 E= -5295.99965974559     Delta-E=       -0.000653068282 Rises=F Damp=F
 DIIS: error= 3.75D-04 at cycle  12 NSaved=  12.
 NSaved=12 IEnMin=12 EnMin= -5295.99965974559     IErMin=12 ErrMin= 3.75D-04
 ErrMax= 3.75D-04  0.00D+00 EMaxC= 1.00D-01 BMatC= 6.22D-04 BMatP= 1.03D-02
 IDIUse=3 WtCom= 9.96D-01 WtEn= 3.75D-03
 Coeff-Com: -0.113D-02 0.106D-02-0.403D-04 0.967D-03 0.854D-02 0.634D-02
 Coeff-Com: -0.190D-01-0.330D+00-0.567D-01 0.299D+00 0.489D+00 0.602D+00
 Coeff-En:   0.000D+00 0.000D+00 0.000D+00 0.000D+00 0.000D+00 0.000D+00
 Coeff-En:   0.000D+00 0.000D+00 0.000D+00 0.000D+00 0.000D+00 0.100D+01
 Coeff:     -0.112D-02 0.106D-02-0.402D-04 0.963D-03 0.851D-02 0.632D-02
 Coeff:     -0.190D-01-0.329D+00-0.565D-01 0.298D+00 0.487D+00 0.604D+00
 Gap=     0.206 Goal=   None    Shift=    0.000
 Gap=     0.206 Goal=   None    Shift=    0.000
 RMSDP=6.61D-06 MaxDP=1.15D-03 DE=-6.53D-04 OVMax= 1.02D-03

 Cycle  13  Pass 1  IDiag  1:
 RMSU=  3.29D-06    CP:  9.79D-01  6.06D-01  3.14D-01  5.87D-01  5.87D-01
                    CP:  5.37D-01  6.09D-01  1.45D+00  3.00D+00  2.03D+00
                    CP:  1.09D+00  7.25D-01
 E= -5295.99969762772     Delta-E=       -0.000037882131 Rises=F Damp=F
 DIIS: error= 8.46D-05 at cycle  13 NSaved=  13.
 NSaved=13 IEnMin=13 EnMin= -5295.99969762772     IErMin=13 ErrMin= 8.46D-05
 ErrMax= 8.46D-05  0.00D+00 EMaxC= 1.00D-01 BMatC= 3.40D-05 BMatP= 6.22D-04
 IDIUse=1 WtCom= 1.00D+00 WtEn= 0.00D+00
 Coeff-Com: -0.323D-03 0.204D-03 0.310D-04 0.324D-03 0.335D-02 0.285D-02
 Coeff-Com: -0.441D-02-0.112D+00-0.463D-01 0.937D-01 0.189D+00 0.317D+00
 Coeff-Com:  0.557D+00
 Coeff:     -0.323D-03 0.204D-03 0.310D-04 0.324D-03 0.335D-02 0.285D-02
 Coeff:     -0.441D-02-0.112D+00-0.463D-01 0.937D-01 0.189D+00 0.317D+00
 Coeff:      0.557D+00
 Gap=     0.206 Goal=   None    Shift=    0.000
 Gap=     0.206 Goal=   None    Shift=    0.000
 RMSDP=1.91D-06 MaxDP=2.48D-04 DE=-3.79D-05 OVMax= 2.28D-04

 Cycle  14  Pass 1  IDiag  1:
 RMSU=  1.40D-06    CP:  9.79D-01  6.06D-01  3.15D-01  5.87D-01  5.87D-01
                    CP:  5.37D-01  6.08D-01  1.45D+00  3.00D+00  2.06D+00
                    CP:  1.11D+00  7.74D-01  7.58D-01
 E= -5295.99970007043     Delta-E=       -0.000002442706 Rises=F Damp=F
 DIIS: error= 1.33D-05 at cycle  14 NSaved=  14.
 NSaved=14 IEnMin=14 EnMin= -5295.99970007043     IErMin=14 ErrMin= 1.33D-05
 ErrMax= 1.33D-05  0.00D+00 EMaxC= 1.00D-01 BMatC= 1.13D-06 BMatP= 3.40D-05
 IDIUse=1 WtCom= 1.00D+00 WtEn= 0.00D+00
 Coeff-Com:  0.288D-04-0.604D-04 0.163D-04 0.644D-04 0.277D-03 0.161D-04
 Coeff-Com: -0.107D-02-0.984D-02-0.846D-02 0.480D-02 0.174D-01 0.546D-01
 Coeff-Com:  0.220D+00 0.722D+00
 Coeff:      0.288D-04-0.604D-04 0.163D-04 0.644D-04 0.277D-03 0.161D-04
 Coeff:     -0.107D-02-0.984D-02-0.846D-02 0.480D-02 0.174D-01 0.546D-01
 Coeff:      0.220D+00 0.722D+00
 Gap=     0.206 Goal=   None    Shift=    0.000
 Gap=     0.206 Goal=   None    Shift=    0.000
 RMSDP=6.60D-07 MaxDP=6.45D-05 DE=-2.44D-06 OVMax= 1.26D-04

 Cycle  15  Pass 1  IDiag  1:
 RMSU=  4.80D-07    CP:  9.79D-01  6.06D-01  3.15D-01  5.87D-01  5.87D-01
                    CP:  5.37D-01  6.07D-01  1.46D+00  3.00D+00  2.07D+00
                    CP:  1.11D+00  7.87D-01  8.47D-01  9.67D-01
 E= -5295.99970019559     Delta-E=       -0.000000125166 Rises=F Damp=F
 DIIS: error= 6.93D-06 at cycle  15 NSaved=  15.
 NSaved=15 IEnMin=15 EnMin= -5295.99970019559     IErMin=15 ErrMin= 6.93D-06
 ErrMax= 6.93D-06  0.00D+00 EMaxC= 1.00D-01 BMatC= 3.17D-07 BMatP= 1.13D-06
 IDIUse=1 WtCom= 1.00D+00 WtEn= 0.00D+00
 Coeff-Com:  0.236D-04-0.136D-04 0.552D-05-0.205D-04-0.247D-03-0.289D-03
 Coeff-Com:  0.265D-03 0.116D-01 0.324D-02-0.112D-01-0.197D-01-0.165D-01
 Coeff-Com:  0.143D-01 0.362D+00 0.657D+00
 Coeff:      0.236D-04-0.136D-04 0.552D-05-0.205D-04-0.247D-03-0.289D-03
 Coeff:      0.265D-03 0.116D-01 0.324D-02-0.112D-01-0.197D-01-0.165D-01
 Coeff:      0.143D-01 0.362D+00 0.657D+00
 Gap=     0.206 Goal=   None    Shift=    0.000
 Gap=     0.206 Goal=   None    Shift=    0.000
 RMSDP=3.35D-07 MaxDP=3.60D-05 DE=-1.25D-07 OVMax= 6.75D-05

 Cycle  16  Pass 1  IDiag  1:
 RMSU=  2.09D-07    CP:  9.79D-01  6.06D-01  3.15D-01  5.87D-01  5.87D-01
                    CP:  5.36D-01  6.07D-01  1.45D+00  3.00D+00  2.06D+00
                    CP:  1.11D+00  7.97D-01  8.65D-01  1.05D+00  9.43D-01
 E= -5295.99970023231     Delta-E=       -0.000000036720 Rises=F Damp=F
 DIIS: error= 1.43D-06 at cycle  16 NSaved=  16.
 NSaved=16 IEnMin=16 EnMin= -5295.99970023231     IErMin=16 ErrMin= 1.43D-06
 ErrMax= 1.43D-06  0.00D+00 EMaxC= 1.00D-01 BMatC= 2.12D-08 BMatP= 3.17D-07
 IDIUse=1 WtCom= 1.00D+00 WtEn= 0.00D+00
 Coeff-Com: -0.177D-05 0.866D-05-0.501D-06-0.153D-04-0.832D-04-0.984D-05
 Coeff-Com:  0.414D-03 0.544D-02 0.223D-02-0.461D-02-0.948D-02-0.112D-01
 Coeff-Com: -0.318D-01 0.469D-01 0.286D+00 0.717D+00
 Coeff:     -0.177D-05 0.866D-05-0.501D-06-0.153D-04-0.832D-04-0.984D-05
 Coeff:      0.414D-03 0.544D-02 0.223D-02-0.461D-02-0.948D-02-0.112D-01
 Coeff:     -0.318D-01 0.469D-01 0.286D+00 0.717D+00
 Gap=     0.206 Goal=   None    Shift=    0.000
 Gap=     0.206 Goal=   None    Shift=    0.000
 RMSDP=1.23D-07 MaxDP=8.23D-06 DE=-3.67D-08 OVMax= 2.33D-05

 Cycle  17  Pass 1  IDiag  1:
 RMSU=  9.60D-08    CP:  9.79D-01  6.06D-01  3.15D-01  5.87D-01  5.87D-01
                    CP:  5.36D-01  6.07D-01  1.45D+00  3.00D+00  2.06D+00
                    CP:  1.11D+00  7.98D-01  8.65D-01  1.08D+00  1.03D+00
                    CP:  9.60D-01
 E= -5295.99970023591     Delta-E=       -0.000000003593 Rises=F Damp=F
 DIIS: error= 8.68D-07 at cycle  17 NSaved=  17.
 NSaved=17 IEnMin=17 EnMin= -5295.99970023591     IErMin=17 ErrMin= 8.68D-07
 ErrMax= 8.68D-07  0.00D+00 EMaxC= 1.00D-01 BMatC= 5.31D-09 BMatP= 2.12D-08
 IDIUse=1 WtCom= 1.00D+00 WtEn= 0.00D+00
 Coeff-Com: -0.211D-05 0.356D-05-0.815D-06-0.473D-05-0.123D-04 0.330D-04
 Coeff-Com:  0.184D-03 0.122D-02 0.628D-03-0.951D-03-0.233D-02-0.292D-02
 Coeff-Com: -0.180D-01-0.119D-01 0.707D-01 0.356D+00 0.608D+00
 Coeff:     -0.211D-05 0.356D-05-0.815D-06-0.473D-05-0.123D-04 0.330D-04
 Coeff:      0.184D-03 0.122D-02 0.628D-03-0.951D-03-0.233D-02-0.292D-02
 Coeff:     -0.180D-01-0.119D-01 0.707D-01 0.356D+00 0.608D+00
 Gap=     0.206 Goal=   None    Shift=    0.000
 Gap=     0.206 Goal=   None    Shift=    0.000
 RMSDP=4.35D-08 MaxDP=4.43D-06 DE=-3.59D-09 OVMax= 1.26D-05

 Cycle  18  Pass 1  IDiag  1:
 RMSU=  3.08D-08    CP:  9.79D-01  6.06D-01  3.15D-01  5.87D-01  5.87D-01
                    CP:  5.36D-01  6.07D-01  1.45D+00  3.00D+00  2.06D+00
                    CP:  1.11D+00  7.99D-01  8.67D-01  1.09D+00  1.05D+00
                    CP:  1.06D+00  9.28D-01
 E= -5295.99970023680     Delta-E=       -0.000000000891 Rises=F Damp=F
 DIIS: error= 3.47D-07 at cycle  18 NSaved=  18.
 NSaved=18 IEnMin=18 EnMin= -5295.99970023680     IErMin=18 ErrMin= 3.47D-07
 ErrMax= 3.47D-07  0.00D+00 EMaxC= 1.00D-01 BMatC= 8.97D-10 BMatP= 5.31D-09
 IDIUse=1 WtCom= 1.00D+00 WtEn= 0.00D+00
 Coeff-Com: -0.609D-06 0.895D-06-0.151D-06-0.807D-07 0.257D-06 0.970D-05
 Coeff-Com:  0.376D-04-0.550D-04-0.135D-04 0.540D-04-0.190D-04 0.857D-04
 Coeff-Com: -0.429D-02-0.103D-01-0.994D-02 0.382D-01 0.294D+00 0.692D+00
 Coeff:     -0.609D-06 0.895D-06-0.151D-06-0.807D-07 0.257D-06 0.970D-05
 Coeff:      0.376D-04-0.550D-04-0.135D-04 0.540D-04-0.190D-04 0.857D-04
 Coeff:     -0.429D-02-0.103D-01-0.994D-02 0.382D-01 0.294D+00 0.692D+00
 Gap=     0.206 Goal=   None    Shift=    0.000
 Gap=     0.206 Goal=   None    Shift=    0.000
 RMSDP=1.99D-08 MaxDP=1.31D-06 DE=-8.91D-10 OVMax= 5.18D-06

 Cycle  19  Pass 1  IDiag  1:
 RMSU=  1.26D-08    CP:  9.79D-01  6.06D-01  3.15D-01  5.87D-01  5.87D-01
                    CP:  5.36D-01  6.07D-01  1.45D+00  3.00D+00  2.06D+00
                    CP:  1.11D+00  7.99D-01  8.67D-01  1.09D+00  1.06D+00
                    CP:  1.09D+00  1.03D+00  1.01D+00
 E= -5295.99970023681     Delta-E=       -0.000000000013 Rises=F Damp=F
 DIIS: error= 7.54D-08 at cycle  19 NSaved=  19.
 NSaved=19 IEnMin=19 EnMin= -5295.99970023681     IErMin=19 ErrMin= 7.54D-08
 ErrMax= 7.54D-08  0.00D+00 EMaxC= 1.00D-01 BMatC= 7.51D-11 BMatP= 8.97D-10
 IDIUse=1 WtCom= 1.00D+00 WtEn= 0.00D+00
 Coeff-Com:  0.111D-06-0.254D-06 0.110D-07 0.796D-06 0.137D-05-0.254D-05
 Coeff-Com: -0.139D-04-0.232D-03-0.962D-04 0.178D-03 0.346D-03 0.535D-03
 Coeff-Com:  0.761D-03-0.255D-02-0.162D-01-0.516D-01 0.338D-01 0.303D+00
 Coeff-Com:  0.732D+00
 Coeff:      0.111D-06-0.254D-06 0.110D-07 0.796D-06 0.137D-05-0.254D-05
 Coeff:     -0.139D-04-0.232D-03-0.962D-04 0.178D-03 0.346D-03 0.535D-03
 Coeff:      0.761D-03-0.255D-02-0.162D-01-0.516D-01 0.338D-01 0.303D+00
 Coeff:      0.732D+00
 Gap=     0.206 Goal=   None    Shift=    0.000
 Gap=     0.206 Goal=   None    Shift=    0.000
 RMSDP=9.10D-09 MaxDP=5.47D-07 DE=-1.27D-11 OVMax= 2.54D-06

 Error on total polarization charges =  0.02973
 SCF Done:  E(UMN15) =  -5295.99970024     A.U. after   19 cycles
            NFock= 19  Conv=0.91D-08     -V/T= 2.0935
 <Sx>= 0.0000 <Sy>= 0.0000 <Sz>= 0.0000 <S**2>=-0.0000 S=-0.0000
 <L.S>=  0.00000000000    
 KE= 4.843286517251D+03 PE=-3.499952294191D+04 EE= 1.367181294870D+04
 SMD-CDS (non-electrostatic) energy       (kcal/mol) =       3.02
 (included in total energy above)
 Annihilation of the first spin contaminant:
 S**2 before annihilation    -0.0000,   after    -0.0000
 Leave Link  502 at Mon May  5 22:35:04 2025, MaxMem= 82678120448 cpu:           29476.3 elap:            1245.8
 (Enter /sysapps/ubuntu-applications/gaussian-new/avx/g16/l801.exe)
 DoSCS=F DFT=T ScalE2(SS,OS)=  1.000000  1.000000
 Range of M.O.s used for correlation:     1   888
 NBasis=   888 NAE=   222 NBE=   222 NFC=     0 NFV=     0
 NROrb=    888 NOA=   222 NOB=   222 NVA=   666 NVB=   666

 **** Warning!!: The largest alpha MO coefficient is  0.12570138D+02


 **** Warning!!: The largest beta MO coefficient is  0.12570138D+02

 Leave Link  801 at Mon May  5 22:35:04 2025, MaxMem= 82678120448 cpu:               2.1 elap:               0.2
 (Enter /sysapps/ubuntu-applications/gaussian-new/avx/g16/l1101.exe)
 Using compressed storage, NAtomX=    67.
 Will process     68 centers per pass.
   1 Symmetry operations used in ECPInt.
 ECPInt:  NShTT=   73153 NPrTT=  279412 LenC2=   57907 LenP2D=  135975.
 LDataN:  DoStor=T MaxTD1=10 Len=  848
 Leave Link 1101 at Mon May  5 22:35:22 2025, MaxMem= 82678120448 cpu:             429.6 elap:              18.2
 (Enter /sysapps/ubuntu-applications/gaussian-new/avx/g16/l1102.exe)
 Symmetrizing basis deriv contribution to polar:
 IMax=3 JMax=2 DiffMx= 0.00D+00
 Leave Link 1102 at Mon May  5 22:35:24 2025, MaxMem= 82678120448 cpu:              15.5 elap:               1.0
 (Enter /sysapps/ubuntu-applications/gaussian-new/avx/g16/l1110.exe)
 Forming Gx(P) for the SCF density, NAtomX=    67.
 Integral derivatives from FoFJK, PRISM(SPDF).
 Do as many integral derivatives as possible in FoFJK.
 G2DrvN: MDV=   82678114550.
 G2DrvN: will do    68 centers at a time, making    1 passes.
 Calling FoFCou, ICntrl=  3107 FMM=T I1Cent=   0 AccDes= 0.00D+00.
 FoFJK:  IHMeth= 1 ICntrl=    3107 DoSepK=F KAlg= 0 I1Cent=           0 FoldK=F
 IRaf=         0 NMat=       1 IRICut=       1 DoRegI=T DoRafI=F ISym2E= 0 IDoP0=0 IntGTp=1.
 FoFCou: FMM=T IPFlag=           0 FMFlag=      100000 FMFlg1=        2001
         NFxFlg=           0 DoJE=F BraDBF=F KetDBF=F FulRan=T
         wScrn=  0.000000 ICntrl=      3107 IOpCl=  1 I1Cent=           0 NGrid=           0
         NMat0=    1 NMatS0=      1 NMatT0=    0 NMatD0=    1 NMtDS0=    0 NMtDT0=    0
 Symmetry not used in FoFCou.
 FMM levels:  10  Number of levels for PrismC:   9
 Defaulting to unpruned grid for atomic number  71.
 Defaulting to unpruned grid for atomic number  71.
 Defaulting to unpruned grid for atomic number  71.
 Defaulting to unpruned grid for atomic number  71.
 Defaulting to unpruned grid for atomic number  71.
 Defaulting to unpruned grid for atomic number  71.
 Defaulting to unpruned grid for atomic number  71.
 Defaulting to unpruned grid for atomic number  71.
 Defaulting to unpruned grid for atomic number  71.
 Defaulting to unpruned grid for atomic number  71.
 Defaulting to unpruned grid for atomic number  71.
 Defaulting to unpruned grid for atomic number  71.
 Defaulting to unpruned grid for atomic number  71.
 Defaulting to unpruned grid for atomic number  71.
 Defaulting to unpruned grid for atomic number  71.
 Defaulting to unpruned grid for atomic number  71.
 Defaulting to unpruned grid for atomic number  71.
 Defaulting to unpruned grid for atomic number  71.
 Defaulting to unpruned grid for atomic number  71.
 Defaulting to unpruned grid for atomic number  71.
 Defaulting to unpruned grid for atomic number  71.
 Defaulting to unpruned grid for atomic number  71.
 Defaulting to unpruned grid for atomic number  71.
 Defaulting to unpruned grid for atomic number  71.
 NEqPCM:  Using equilibrium solvation (IEInf=0, Eps=  10.1250, EpsInf=   2.0874)
 G2PCM: DoFxE=T DoFxN=T DoGrad=T DoDP/DQ/DG/TGxP=FFFF NFrqRd=   0 IEInf=0 SqF1=F DoCFld=F IF1Alg=4.
 GePol: Maximum number of non-zero 1st derivatives   =     264
 End of G2Drv F.D. properties file   721 does not exist.
 End of G2Drv F.D. properties file   722 does not exist.
 End of G2Drv F.D. properties file   788 does not exist.
 Leave Link 1110 at Mon May  5 23:40:09 2025, MaxMem= 82678120448 cpu:           92209.2 elap:            3885.2
 (Enter /sysapps/ubuntu-applications/gaussian-new/avx/g16/l1002.exe)
 Minotr:  UHF open shell wavefunction.
          IDoAtm=11111111111111111111111111111111111111111111111111
          IDoAtm=11111111111111111
 NEqPCM:  Using equilibrium solvation (IEInf=0, Eps=  10.1250, EpsInf=   2.0874)
          Direct CPHF calculation.
          Differentiating once with respect to electric field.
                with respect to dipole field.
          Differentiating once with respect to nuclear coordinates.
          Requested convergence is 1.0D-08 RMS, and 1.0D-07 maximum.
          Secondary convergence is 1.0D-12 RMS, and 1.0D-12 maximum.
          NewPWx=T KeepS1=F KeepF1=F KeepIn=T MapXYZ=F SortEE=F KeepMc=T.
 Defaulting to unpruned grid for atomic number  71.
        20709 words used for storage of precomputed grid.
 Two-electron integrals replicated using symmetry.
          MDV=   82678120448 using IRadAn=       1.
          Solving linear equations simultaneously, MaxMat=      72.
 FoF2E skips out because all densities are zero.
 CalDSu exits because no D1Ps are significant.
 FoFJK:  IHMeth= 1 ICntrl=       0 DoSepK=F KAlg= 0 I1Cent=           0 FoldK=F
 IRaf= 830000000 NMat=      72 IRICut=       1 DoRegI=T DoRafI=F ISym2E= 2 IDoP0=3 IntGTp=3.
 Defaulting to unpruned grid for atomic number  71.
 Defaulting to unpruned grid for atomic number  71.
 Defaulting to unpruned grid for atomic number  71.
 Defaulting to unpruned grid for atomic number  71.
 Defaulting to unpruned grid for atomic number  71.
 Defaulting to unpruned grid for atomic number  71.
 Defaulting to unpruned grid for atomic number  71.
 Defaulting to unpruned grid for atomic number  71.
 Defaulting to unpruned grid for atomic number  71.
 Defaulting to unpruned grid for atomic number  71.
 Defaulting to unpruned grid for atomic number  71.
 Defaulting to unpruned grid for atomic number  71.
 Defaulting to unpruned grid for atomic number  71.
 Defaulting to unpruned grid for atomic number  71.
 Defaulting to unpruned grid for atomic number  71.
 Defaulting to unpruned grid for atomic number  71.
 Defaulting to unpruned grid for atomic number  71.
 Defaulting to unpruned grid for atomic number  71.
 Defaulting to unpruned grid for atomic number  71.
 Defaulting to unpruned grid for atomic number  71.
 Defaulting to unpruned grid for atomic number  71.
 Defaulting to unpruned grid for atomic number  71.
 Defaulting to unpruned grid for atomic number  71.
 Defaulting to unpruned grid for atomic number  71.
          There are   204 degrees of freedom in the 1st order CPHF.  IDoFFX=6 NUNeed=     3.
    204 vectors produced by pass  0 Test12= 2.96D-13 1.00D-09 XBig12= 4.30D+02 3.94D+00.
 AX will form    72 AO Fock derivatives at one time.
    201 vectors produced by pass  1 Test12= 2.96D-13 1.00D-09 XBig12= 8.79D+01 5.62D-01.
    201 vectors produced by pass  2 Test12= 2.96D-13 1.00D-09 XBig12= 3.07D+00 1.01D-01.
    201 vectors produced by pass  3 Test12= 2.96D-13 1.00D-09 XBig12= 4.99D-02 1.23D-02.
    201 vectors produced by pass  4 Test12= 2.96D-13 1.00D-09 XBig12= 4.44D-04 1.04D-03.
    201 vectors produced by pass  5 Test12= 2.96D-13 1.00D-09 XBig12= 2.27D-06 5.68D-05.
    170 vectors produced by pass  6 Test12= 2.96D-13 1.00D-09 XBig12= 8.44D-09 3.46D-06.
     63 vectors produced by pass  7 Test12= 2.96D-13 1.00D-09 XBig12= 3.51D-11 2.72D-07.
      4 vectors produced by pass  8 Test12= 2.96D-13 1.00D-09 XBig12= 1.68D-13 2.34D-08.
      3 vectors produced by pass  9 Test12= 2.96D-13 1.00D-09 XBig12= 2.13D-15 2.22D-09.
      2 vectors produced by pass 10 Test12= 2.96D-13 1.00D-09 XBig12= 1.91D-15 1.27D-09.
 InvSVY:  IOpt=1 It=  1 EMax= 2.13D-14
 Solved reduced A of dimension  1451 with   204 vectors.
 FullF1:  Do perturbations      1 to       3.
 Isotropic polarizability for W=    0.000000      442.28 Bohr**3.
 End of Minotr F.D. properties file   721 does not exist.
 End of Minotr F.D. properties file   722 does not exist.
 End of Minotr F.D. properties file   788 does not exist.
 Leave Link 1002 at Tue May  6 03:27:40 2025, MaxMem= 82678120448 cpu:          324003.7 elap:           13648.2
 (Enter /sysapps/ubuntu-applications/gaussian-new/avx/g16/l601.exe)
 Copying SCF densities to generalized density rwf, IOpCl= 1 IROHF=0.

 **********************************************************************

            Population analysis using the SCF density.

 **********************************************************************

 Orbital symmetries:
 Alpha Orbitals:
       Occupied  (A) (A) (A) (A) (A) (A) (A) (A) (A) (A) (A) (A)
                 (A) (A) (A) (A) (A) (A) (A) (A) (A) (A) (A) (A)
                 (A) (A) (A) (A) (A) (A) (A) (A) (A) (A) (A) (A)
                 (A) (A) (A) (A) (A) (A) (A) (A) (A) (A) (A) (A)
                 (A) (A) (A) (A) (A) (A) (A) (A) (A) (A) (A) (A)
                 (A) (A) (A) (A) (A) (A) (A) (A) (A) (A) (A) (A)
                 (A) (A) (A) (A) (A) (A) (A) (A) (A) (A) (A) (A)
                 (A) (A) (A) (A) (A) (A) (A) (A) (A) (A) (A) (A)
                 (A) (A) (A) (A) (A) (A) (A) (A) (A) (A) (A) (A)
                 (A) (A) (A) (A) (A) (A) (A) (A) (A) (A) (A) (A)
                 (A) (A) (A) (A) (A) (A) (A) (A) (A) (A) (A) (A)
                 (A) (A) (A) (A) (A) (A) (A) (A) (A) (A) (A) (A)
                 (A) (A) (A) (A) (A) (A) (A) (A) (A) (A) (A) (A)
                 (A) (A) (A) (A) (A) (A) (A) (A) (A) (A) (A) (A)
                 (A) (A) (A) (A) (A) (A) (A) (A) (A) (A) (A) (A)
                 (A) (A) (A) (A) (A) (A) (A) (A) (A) (A) (A) (A)
                 (A) (A) (A) (A) (A) (A) (A) (A) (A) (A) (A) (A)
                 (A) (A) (A) (A) (A) (A) (A) (A) (A) (A) (A) (A)
                 (A) (A) (A) (A) (A) (A)
       Virtual   (A) (A) (A) (A) (A) (A) (A) (A) (A) (A) (A) (A)
                 (A) (A) (A) (A) (A) (A) (A) (A) (A) (A) (A) (A)
                 (A) (A) (A) (A) (A) (A) (A) (A) (A) (A) (A) (A)
                 (A) (A) (A) (A) (A) (A) (A) (A) (A) (A) (A) (A)
                 (A) (A) (A) (A) (A) (A) (A) (A) (A) (A) (A) (A)
                 (A) (A) (A) (A) (A) (A) (A) (A) (A) (A) (A) (A)
                 (A) (A) (A) (A) (A) (A) (A) (A) (A) (A) (A) (A)
                 (A) (A) (A) (A) (A) (A) (A) (A) (A) (A) (A) (A)
                 (A) (A) (A) (A) (A) (A) (A) (A) (A) (A) (A) (A)
                 (A) (A) (A) (A) (A) (A) (A) (A) (A) (A) (A) (A)
                 (A) (A) (A) (A) (A) (A) (A) (A) (A) (A) (A) (A)
                 (A) (A) (A) (A) (A) (A) (A) (A) (A) (A) (A) (A)
                 (A) (A) (A) (A) (A) (A) (A) (A) (A) (A) (A) (A)
                 (A) (A) (A) (A) (A) (A) (A) (A) (A) (A) (A) (A)
                 (A) (A) (A) (A) (A) (A) (A) (A) (A) (A) (A) (A)
                 (A) (A) (A) (A) (A) (A) (A) (A) (A) (A) (A) (A)
                 (A) (A) (A) (A) (A) (A) (A) (A) (A) (A) (A) (A)
                 (A) (A) (A) (A) (A) (A) (A) (A) (A) (A) (A) (A)
                 (A) (A) (A) (A) (A) (A) (A) (A) (A) (A) (A) (A)
                 (A) (A) (A) (A) (A) (A) (A) (A) (A) (A) (A) (A)
                 (A) (A) (A) (A) (A) (A) (A) (A) (A) (A) (A) (A)
                 (A) (A) (A) (A) (A) (A) (A) (A) (A) (A) (A) (A)
                 (A) (A) (A) (A) (A) (A) (A) (A) (A) (A) (A) (A)
                 (A) (A) (A) (A) (A) (A) (A) (A) (A) (A) (A) (A)
                 (A) (A) (A) (A) (A) (A) (A) (A) (A) (A) (A) (A)
                 (A) (A) (A) (A) (A) (A) (A) (A) (A) (A) (A) (A)
                 (A) (A) (A) (A) (A) (A) (A) (A) (A) (A) (A) (A)
                 (A) (A) (A) (A) (A) (A) (A) (A) (A) (A) (A) (A)
                 (A) (A) (A) (A) (A) (A) (A) (A) (A) (A) (A) (A)
                 (A) (A) (A) (A) (A) (A) (A) (A) (A) (A) (A) (A)
                 (A) (A) (A) (A) (A) (A) (A) (A) (A) (A) (A) (A)
                 (A) (A) (A) (A) (A) (A) (A) (A) (A) (A) (A) (A)
                 (A) (A) (A) (A) (A) (A) (A) (A) (A) (A) (A) (A)
                 (A) (A) (A) (A) (A) (A) (A) (A) (A) (A) (A) (A)
                 (A) (A) (A) (A) (A) (A) (A) (A) (A) (A) (A) (A)
                 (A) (A) (A) (A) (A) (A) (A) (A) (A) (A) (A) (A)
                 (A) (A) (A) (A) (A) (A) (A) (A) (A) (A) (A) (A)
                 (A) (A) (A) (A) (A) (A) (A) (A) (A) (A) (A) (A)
                 (A) (A) (A) (A) (A) (A) (A) (A) (A) (A) (A) (A)
                 (A) (A) (A) (A) (A) (A) (A) (A) (A) (A) (A) (A)
                 (A) (A) (A) (A) (A) (A) (A) (A) (A) (A) (A) (A)
                 (A) (A) (A) (A) (A) (A) (A) (A) (A) (A) (A) (A)
                 (A) (A) (A) (A) (A) (A) (A) (A) (A) (A) (A) (A)
                 (A) (A) (A) (A) (A) (A) (A) (A) (A) (A) (A) (A)
                 (A) (A) (A) (A) (A) (A) (A) (A) (A) (A) (A) (A)
                 (A) (A) (A) (A) (A) (A) (A) (A) (A) (A) (A) (A)
                 (A) (A) (A) (A) (A) (A) (A) (A) (A) (A) (A) (A)
                 (A) (A) (A) (A) (A) (A) (A) (A) (A) (A) (A) (A)
                 (A) (A) (A) (A) (A) (A) (A) (A) (A) (A) (A) (A)
                 (A) (A) (A) (A) (A) (A) (A) (A) (A) (A) (A) (A)
                 (A) (A) (A) (A) (A) (A) (A) (A) (A) (A) (A) (A)
                 (A) (A) (A) (A) (A) (A) (A) (A) (A) (A) (A) (A)
                 (A) (A) (A) (A) (A) (A) (A) (A) (A) (A) (A) (A)
                 (A) (A) (A) (A) (A) (A) (A) (A) (A) (A) (A) (A)
                 (A) (A) (A) (A) (A) (A) (A) (A) (A) (A) (A) (A)
                 (A) (A) (A) (A) (A) (A)
 Beta  Orbitals:
       Occupied  (A) (A) (A) (A) (A) (A) (A) (A) (A) (A) (A) (A)
                 (A) (A) (A) (A) (A) (A) (A) (A) (A) (A) (A) (A)
                 (A) (A) (A) (A) (A) (A) (A) (A) (A) (A) (A) (A)
                 (A) (A) (A) (A) (A) (A) (A) (A) (A) (A) (A) (A)
                 (A) (A) (A) (A) (A) (A) (A) (A) (A) (A) (A) (A)
                 (A) (A) (A) (A) (A) (A) (A) (A) (A) (A) (A) (A)
                 (A) (A) (A) (A) (A) (A) (A) (A) (A) (A) (A) (A)
                 (A) (A) (A) (A) (A) (A) (A) (A) (A) (A) (A) (A)
                 (A) (A) (A) (A) (A) (A) (A) (A) (A) (A) (A) (A)
                 (A) (A) (A) (A) (A) (A) (A) (A) (A) (A) (A) (A)
                 (A) (A) (A) (A) (A) (A) (A) (A) (A) (A) (A) (A)
[...]
 280,-0.00008732,-0.00017916,-0.00011284,0.00011499,0.00084251,-0.00048
 081,0.00034605,0.00020613,-0.00010851,0.00000380,0.00001331,0.00003389
 ,0.00000052,-0.00005546,0.00013866,0.00028190,0.00013367,0.00004991,0.
 00000153,0.00001048,-0.00012576,-0.00003241,0.00000437,0.00002357,-0.0
 0001612,-0.00001535,-0.00000322,-0.00004995,0.00001043,0.00001310,-0.0
 0002934,0.00039542,-0.00040140,0.00005440,0.00015786,-0.00019748,-0.00
 016070,0.00011786,-0.00001330,0.00004016,-0.00000602,-0.00000695,0.000
 00059,-0.00001302,-0.00000943,-0.00001833,-0.00000432,0.00001911,0.000
 02291,-0.11622429,-0.10068739,0.02943559,0.12382929,0.10719488,0.00105
 957,0.00024582,0.00099509,-0.02134380,-0.00502067,0.01050809,-0.000737
 62,0.00020643,0.00022991,0.00041316,-0.00005291,-0.00024198,-0.0043362
 6,-0.00660664,-0.00387228,-0.00008286,0.00004655,-0.00007711,-0.000045
 18,0.00011988,0.00013698,-0.00014370,-0.00025082,-0.00011600,0.0001554
 2,0.00028875,-0.00005728,0.00009174,-0.00002377,0.00008077,-0.00013631
 ,-0.00020764,-0.00051494,-0.00006018,-0.00009671,0.00001537,-0.0000467
 6,-0.00009013,-0.00000507,-0.00008140,0.00000740,-0.00007223,-0.000021
 76,0.00000879,-0.00003573,-0.00016637,0.00018208,0.00015490,0.00029212
 ,-0.00001346,0.00011363,0.00002747,-0.00000338,0.00003390,0.00003963,0
 .00000125,-0.00000815,-0.00002321,0.00014793,-0.00001352,-0.00000592,0
 .00000729,-0.00000567,0.00001279,0.00000099,0.00000579,-0.00001916,0.0
 0000921,0.00001589,-0.00001196,0.00000042,-0.00000102,-0.00001555,0.00
 001004,0.00000450,-0.00001534,-0.00000920,0.00000011,-0.00000894,-0.00
 008645,0.00001607,-0.00000522,-0.00005407,0.00003215,0.00002998,-0.000
 02352,-0.00000713,-0.00005473,-0.00011027,0.00006903,0.00035999,-0.000
 61488,-0.00013476,0.00004308,0.00003205,0.00009512,-0.00007496,0.00017
 328,0.00003289,-0.00062542,0.00085579,-0.00193873,0.00057562,-0.000554
 91,0.00007066,-0.00050478,0.00003468,-0.00019853,-0.00004862,-0.000078
 20,0.00007495,-0.00000755,-0.00003022,-0.00005035,0.00000925,-0.000043
 88,0.00006310,-0.00005654,-0.00000737,-0.00004067,0.00003078,-0.000031
 16,0.00008851,0.00037929,-0.00039023,-0.00085736,0.00064889,0.00155976
 ,-0.00065334,-0.00042595,-0.00026465,-0.00204479,0.00005127,0.00014253
 ,0.00014750,0.00002415,0.00003033,-0.00004023,-0.00001630,0.00021399,0
 .00007336,-0.00004323,-0.00003967,-0.00002855,-0.00027003,0.00013223,0
 .00011284,-0.00026477,0.00010594,-0.00022029,-0.00000330,0.00000012,0.
 00000549,0.00015378,-0.00018048,-0.00008831,0.00006559,0.00004033,0.00
 009468,0.00021135,0.00032632,-0.00004782,0.00000481,-0.00002234,-0.000
 00735,-0.00003211,0.00000717,-0.00001896,0.00000285,-0.00000239,0.0000
 1052,0.00090712,-0.00021075,0.00051935,-0.00011343,0.00014178,-0.00023
 209,0.00013108,-0.00001919,0.00006377,-0.00000114,-0.00000056,0.000002
 05,-0.00000256,-0.00000960,-0.00003305,0.00000400,0.00002306,0.0000262
 4,0.06904169,0.03294041,-0.06613262,-0.06805117,-0.03321824,0.06836873
 ,0.00026790,-0.00057665,0.00043482,-0.00184619,0.01040246,-0.00571060,
 -0.00009066,0.00014801,0.00023004,0.00000460,-0.00001045,-0.00019606,-
 0.00131754,-0.00291322,0.00026837,-0.00007602,0.00003671,-0.00003138,-
 0.00001209,0.00011187,0.00025326,-0.00010682,-0.00014966,-0.00003206,0
 .00017024,0.00021159,-0.00005974,0.00009657,-0.00004407,0.00005475,-0.
 00036023,-0.00019971,-0.00107886,-0.00006181,-0.00006249,0.00004919,-0
 .00004722,-0.00006677,-0.00000228,-0.00009926,0.00000301,-0.00007404,-
 0.00002177,0.00001295,-0.00002953,-0.00021669,0.00011286,0.00035804,0.
 00053548,-0.00002578,0.00031171,-0.00002016,0.00004643,0.00005360,0.00
 003672,0.00000239,-0.00002944,0.00005038,0.00011770,-0.00003791,0.0000
 0266,-0.00002512,0.00000281,0.00006733,-0.00000829,0.00002699,-0.00001
 589,0.00000537,0.00001948,-0.00000958,-0.00000109,0.00001549,-0.000016
 44,0.00001257,0.00000887,-0.00001582,-0.00001210,0.00000319,-0.0000266
 7,-0.00008101,0.00004461,-0.00001669,-0.00005268,0.00003791,-0.0000066
 4,-0.00000783,0.00001308,-0.00009919,-0.00015906,0.00017146,0.00015476
 ,-0.00026272,0.00000338,-0.00001820,-0.00001040,0.00003360,-0.00005453
 ,0.00013018,0.00005784,-0.00043213,-0.00039606,0.00035584,-0.00015861,
 0.00012177,-0.00005129,0.00050004,0.00008908,0.00027411,0.00012618,-0.
 00003445,-0.00014193,-0.00000903,0.00000129,0.00000832,-0.00000466,0.0
 0001143,-0.00002176,0.00001277,0.00000532,-0.00002729,0.00001531,-0.00
 002521,0.00001407,-0.00019033,0.00044317,0.00075572,-0.00000903,-0.000
 15707,-0.00007993,-0.00031035,-0.00013623,-0.00045194,0.00004145,0.000
 03346,-0.00003328,0.00000668,0.00002457,-0.00007866,-0.00017904,-0.000
 36527,0.00029901,-0.00022294,0.00085806,0.00004435,-0.00073851,-0.0000
 0146,0.00052853,-0.00014082,0.00074439,0.00004172,0.00001889,-0.000050
 85,-0.00003011,-0.00104290,-0.00027559,-0.00014031,0.00002063,0.000021
 71,-0.00003150,0.00009023,0.00063791,-0.00056287,0.00001060,-0.0001157
 1,0.00000587,0.00006777,0.00000500,0.00002320,0.00003468,-0.00002816,0
 .00006834,0.00091035,0.00003346,0.00020516,0.00003617,-0.00004978,-0.0
 0040386,0.00001982,-0.00002251,-0.00001177,0.00000565,0.00001210,-0.00
 000422,-0.00000077,-0.00000182,0.00000220,0.00000023,0.00000198,-0.000
 00356,-0.04062844,0.00436625,-0.02278292,0.00529154,-0.00988687,0.0207
 4503,0.04209773,-0.00005476,-0.00293996,-0.00044759,-0.00195559,0.0102
 0441,-0.02011137,0.00024030,-0.00001666,-0.00009625,-0.00018266,-0.000
 03640,-0.00010912,0.00108971,-0.00017689,0.00091722,-0.00005373,-0.000
 00120,-0.00003644,-0.00010645,-0.00003191,-0.00003959,-0.00005390,-0.0
 0011144,-0.00000944,0.00005326,0.00016562,-0.00003898,0.00006600,-0.00
 000041,0.00005417,0.00034176,-0.00001068,0.00036612,-0.00001233,-0.000
 07209,0.00001233,-0.00001203,-0.00004518,0.00000436,-0.00005217,-0.000
 00405,-0.00003164,-0.00001640,0.00000339,-0.00002364,0.00009418,0.0001
 7473,-0.00006087,-0.00036899,0.00004237,-0.00010971,0.00009141,-0.0001
 1816,-0.00002919,0.00003395,0.00000503,-0.00000057,-0.00006405,0.00003
 233,-0.00005396,-0.00001025,0.00005438,-0.00001199,-0.00007838,0.00001
 812,-0.00002604,-0.00002889,0.00002027,0.00002136,-0.00001224,-0.00000
 177,-0.00000431,-0.00001166,0.00000624,0.00000182,-0.00001522,-0.00001
 077,-0.00000125,0.00004663,0.00000809,0.00005449,0.00001078,-0.0000153
 0,0.00002160,0.00002880,-0.00000695,0.00000744,-0.00042934,-0.00006651
 ,-0.00030919,0.00010195,-0.00007506,0.00002131,0.00001663,0.00001755,-
 0.00003058,-0.00005698,-0.00000386,0.00002583,-0.00018603,-0.00070358,
 0.00066770,0.00004170,0.00008768,-0.00012165,0.00022342,0.00020979,0.0
 0034059,-0.00013394,0.00000798,-0.00005621,-0.00001999,0.00000120,0.00
 000875,0.00000596,0.00001630,0.00000771,-0.00000703,-0.00000474,0.0000
 2109,0.00002304,0.00000200,0.00002270,0.00000698,0.00026608,0.00019135
 ,-0.00010536,-0.00013991,0.00006474,-0.00033755,-0.00030755,0.00006215
 ,0.00003999,0.00002566,0.00001091,0.00006880,0.00003034,0.00005685,0.0
 0007422,-0.00038841,-0.00015743,0.00077109,-0.00115620,-0.00075198,0.0
 0032622,-0.00018674,0.00007494,0.00002252,-0.00109856,-0.00014459,-0.0
 0000341,0.00001940,0.00002106,0.00055513,0.00016649,-0.00005457,-0.000
 03552,0.00001424,0.00004260,0.00035634,-0.00004504,0.00062139,-0.00000
 300,0.00003590,0.00000545,-0.00012014,0.00000547,-0.00001827,-0.000040
 30,0.00004518,-0.00004640,0.00044530,0.00012788,0.00021292,0.00089537,
 -0.00059088,-0.00078247,-0.00007452,-0.00007149,-0.00007507,0.00000032
 ,0.00001451,-0.00001287,-0.00000112,0.00000685,0.00001223,0.00000140,-
 0.00002121,-0.00002832,0.00497694,-0.11170857,0.12790197,0.00375064,-0
 .00483537,0.00757974,-0.01136403,0.12206261,-0.00145310,-0.00211699,-0
 .00052485,-0.00443478,0.00763761,-0.02362347,0.00062759,-0.00028045,-0
 .00049893,-0.00035832,-0.00005749,0.00033681,0.00547577,0.00176153,0.0
 0298367,0.00012962,-0.00004695,0.00010543,0.00009939,-0.00009668,-0.00
 012171,0.00005132,0.00018238,0.00004308,-0.00010547,-0.00028263,-0.000
 02846,-0.00016210,0.00002845,-0.00012471,-0.00025815,0.00022967,0.0003
 0396,0.00005124,0.00016211,-0.00000081,0.00004486,0.00009118,0.0000243
 9,0.00013647,0.00000852,0.00012186,0.00003887,-0.00001208,0.00005224,0
 .00014951,-0.00015387,-0.00010663,-0.00002915,-0.00004398,-0.00011374,
 -0.00009556,0.00008925,0.00000938,-0.00007491,-0.00000443,0.00001643,-
 0.00000967,-0.00020322,-0.00001835,0.00001676,-0.00004686,0.00000615,0
 .00003161,-0.00001397,0.00000383,0.00004683,-0.00003061,-0.00004640,0.
 00002382,0.00000100,0.00000165,0.00002818,-0.00001683,-0.00000837,0.00
 003046,0.00001926,-0.00000048,0.00002877,0.00011370,0.00002434,0.00001
 683,0.00007577,-0.00003701,-0.00003180,0.00003613,0.00001490,0.0000233
 9,-0.00010210,-0.00006474,-0.00002429,0.00002116,0.00001355,-0.0000014
 5,0.00000406,-0.00001077,-0.00001859,-0.00002432,-0.00000533,0.0001727
 8,0.00027169,-0.00024299,0.00018109,-0.00006926,-0.00002278,-0.0002876
 0,-0.00015237,0.00007316,-0.00002735,0.00002319,0.00010270,-0.00000303
 ,0.00000004,-0.00000390,-0.00000023,0.00000498,-0.00000225,0.00000087,
 -0.00000066,0.00000775,0.00000379,0.00000508,-0.00000410,0.00008999,-0
 .00006461,-0.00010577,-0.00002335,0.00010973,-0.00001369,-0.00010993,-
 0.00004069,0.00070515,-0.00007385,-0.00004274,-0.00000700,0.00001822,0
 .00002522,-0.00000214,0.00001735,0.00021873,-0.00033145,-0.00012023,-0
 .00020274,-0.00051156,-0.00016473,0.00020404,-0.00011205,-0.00002900,0
 .00026271,0.00058737,0.00005194,-0.00004151,-0.00002884,-0.00039457,-0
 .00034229,0.00039616,0.00000405,-0.00001288,-0.00001639,0.00003442,0.0
 0020295,-0.00019974,0.00002696,-0.00002132,-0.00000545,0.00001210,-0.0
 0002151,-0.00001340,-0.00001815,0.00001802,-0.00004044,-0.00101610,-0.
 00001522,-0.00054785,0.00039477,-0.00035886,-0.00034216,-0.00013061,0.
 00003818,-0.00003921,0.00000745,-0.00000231,-0.00000336,0.00001008,0.0
 0000445,0.00001975,0.00000120,-0.00002638,-0.00002930,-0.02142855,0.12
 884048,-0.24691037,-0.00182778,0.00032770,-0.00241646,0.02324847,-0.13
 297336,0.26675877,-0.00132766,0.00124972,-0.00111381,0.01012626,-0.003
 61490,0.00181747,0.00068414,-0.00002752,0.00001457,-0.00025248,0.00024
 381,-0.00001228,-0.00576443,-0.00182529,-0.00015204,0.00005109,0.00018
 200,0.00014480,0.00043028,0.00114182,0.00045737,-0.00018120,-0.0001331
 1,-0.00001667,0.00025237,0.00017906,-0.00010048,0.00002363,-0.00023449
 ,-0.00008422,-0.00525760,-0.00203686,-0.00093878,-0.00013057,0.0000332
 9,0.00004466,-0.00006089,-0.00005959,0.00000630,-0.00011126,0.00007722
 ,-0.00009171,0.00001528,0.00003679,0.00004229,0.00007974,0.00082462,-0
 .00003804,0.00112632,0.00084792,0.00096062,-0.00090247,0.00077109,0.00
 013659,-0.00005508,-0.00001172,-0.00007149,0.00004286,0.00022675,0.000
 06304,0.00013964,-0.00033043,0.00006104,0.00046779,-0.00009380,0.00015
 420,0.00027869,-0.00017629,-0.00018851,0.00003498,0.00000650,0.0000538
 8,0.00000522,0.00000670,0.00001571,0.00003110,0.00002330,0.00001343,-0
 .00005125,-0.00016514,-0.00002033,-0.00002249,-0.00007500,0.00002842,0
 .00001128,-0.00002771,-0.00001595,-0.00021304,-0.00002603,-0.00014770,
 0.00003666,-0.00003797,-0.00005361,0.00000796,0.00002924,-0.00002276,-
 0.00002492,0.00004270,0.00000419,0.00005255,0.00068035,-0.00053330,-0.
 00017084,-0.00019100,0.00018700,-0.00006273,0.00000402,-0.00030768,0.0
 0026739,-0.00002877,-0.00007545,0.00002599,-0.00000309,-0.00002251,0.0
 0001311,-0.00000984,-0.00001507,0.00000386,-0.00000887,0.00001299,0.00
 001627,-0.00001008,0.00002080,-0.00068259,-0.00030455,0.00069134,0.000
 44192,0.00040712,-0.00019217,-0.00011533,-0.00008574,-0.00023136,0.000
 02151,0.00007590,0.00000397,0.00004363,0.00000631,0.00004491,-0.000323
 66,0.00009058,-0.00010474,0.00004385,-0.00039874,0.00034050,-0.0003268
 3,0.00058189,-0.00016501,0.00003975,-0.00013748,-0.00042808,-0.0000171
 4,0.00005292,0.00000579,-0.00023282,-0.00007723,0.00048387,0.00011310,
 -0.00002798,0.00000725,0.00021817,0.00023860,0.00006035,-0.00000416,0.
 00000332,-0.00000592,0.00000544,-0.00000860,-0.00001136,0.00000971,0.0
 0001344,-0.00000532,0.00163869,-0.00107099,-0.00021201,0.00009766,0.00
 020643,0.00052152,-0.00018024,-0.00010789,-0.00005502,-0.00000654,0.00
 000199,-0.00002477,-0.00001379,0.00002168,0.00002308,0.00000696,-0.000
 03759,-0.00003421,-0.17923373,0.13248992,0.02581002,-0.01151425,0.0176
 2739,0.00239261,-0.00206972,0.00120723,0.00138559,0.19240486,-0.001486
 79,0.00021853,-0.00130361,0.01304219,-0.01805106,-0.00276421,0.0006667
 2,-0.00013469,-0.00022482,-0.00024354,0.00016664,0.00015532,-0.0010530
 9,0.00293409,-0.00042118,0.00010167,0.00004709,0.00011140,0.00018353,0
 .00009046,-0.00004076,0.00003710,0.00013602,0.00006605,-0.00003307,-0.
 00019009,-0.00003737,-0.00007887,-0.00005046,-0.00010655,-0.00113933,0
 .00049233,0.00064458,-0.00000374,0.00010705,0.00001937,0.00002067,0.00
 006264,0.00001754,0.00005554,0.00002982,0.00002254,0.00003220,0.000000
 57,0.00005376,0.00155817,-0.00027568,-0.00008300,0.00077389,-0.0004784
 1,-0.00047879,-0.00037855,0.00038177,0.00001402,-0.00007610,0.00000155
 ,-0.00002437,0.00003086,-0.00007142,0.00000846,0.00006027,-0.00023458,
 0.00005308,0.00018597,-0.00006180,0.00006567,0.00013923,-0.00009672,-0
 .00010167,0.00002991,-0.00000005,0.00002630,0.00002273,-0.00001225,0.0
 0000074,0.00003147,0.00001923,0.00000568,-0.00001056,0.00003114,-0.000
 00046,-0.00000005,0.00002671,-0.00001581,-0.00002970,0.00001722,0.0000
 0790,0.00016392,-0.00005951,0.00001426,0.00005684,-0.00005127,-0.00009
 464,0.00001187,-0.00001268,0.00000694,-0.00001077,0.00002208,-0.000018
 25,0.00040060,-0.00012665,0.00019757,0.00023085,-0.00014887,-0.0001102
 5,-0.00037347,-0.00003697,0.00005081,-0.00018157,0.00009867,0.00016108
 ,-0.00000596,-0.00000553,-0.00000774,0.00000666,-0.00003198,0.00006002
 ,-0.00001119,0.00000456,-0.00000471,0.00001056,-0.00000632,0.00002444,
 -0.00044724,-0.00030749,0.00050442,0.00007789,0.00046417,-0.00002334,0
 .00003124,-0.00002729,-0.00049014,0.00006870,-0.00000985,0.00003431,-0
 .00000856,0.00000668,-0.00001245,0.00001701,-0.00001722,-0.00000430,0.
 00016535,-0.00018558,0.00019832,-0.00015376,0.00014486,-0.00027237,-0.
 00007590,-0.00008335,-0.00046667,-0.00000049,-0.00000361,0.00000858,-0
 .00015554,-0.00001229,0.00018266,0.00009249,-0.00001487,0.00001662,0.0
 0008025,0.00031541,0.00001410,0.00000182,-0.00000921,0.00000376,0.0000
 0591,-0.00000639,-0.00000057,0.00001370,0.00000064,0.00000533,-0.00032
 195,-0.00067995,-0.00066440,-0.00012244,0.00002768,0.00044791,-0.00013
 315,-0.00001881,0.00002447,0.00000146,-0.00001376,-0.00001867,0.000004
 01,0.00001619,0.00001411,0.00000351,-0.00001965,-0.00001487,0.13695309
 ,-0.17423128,-0.03060643,-0.00940224,0.01118282,0.00274602,0.00881515,
 -0.00889458,-0.00309678,-0.14824738,0.18762548,-0.00378486,0.00155686,
 -0.00365022,0.01416811,-0.01927714,-0.00834157,0.00135536,-0.00028039,
 -0.00066368,-0.00035591,0.00033122,0.00031979,0.00161817,0.00322469,0.
 00132912,0.00007154,0.00004126,0.00004910,0.00009345,-0.00007080,-0.00
 067475,0.00008791,0.00012810,0.00005498,-0.00008309,-0.00012480,0.0000
 7794,-0.00005725,-0.00005162,-0.00002901,0.00028931,0.00054453,0.00454
 178,0.00002153,0.00003588,-0.00002854,0.00002073,0.00003774,-0.0000085
 7,0.00002866,0.00002143,0.00002163,0.00001784,0.00000731,0.00001725,0.
 00074408,-0.00007081,-0.00145639,-0.00060816,-0.00078949,-0.00196202,0
 .00001525,-0.00010394,-0.00024030,-0.00002307,-0.00000341,0.00002605,0
 .00000913,-0.00004041,0.00005431,-0.00000147,0.00010174,-0.00001614,-0
 .00016630,0.00002191,-0.00006948,0.00010976,-0.00005079,-0.00009564,0.
 00000520,-0.00000033,-0.00001492,0.00000742,-0.00000346,-0.00000632,0.
 00001357,0.00000845,-0.00000397,-0.00000632,0.00000416,-0.00004106,0.0
 0000099,0.00001820,-0.00002099,-0.00000145,0.00000302,-0.00001098,0.00
 019704,0.00004425,0.00014983,-0.00003997,0.00000741,0.00003109,-0.0000
 0151,-0.00002160,0.00001102,0.00000012,-0.00000203,-0.00001848,0.00042
 038,-0.00002775,-0.00036049,0.00007300,0.00010981,-0.00009374,-0.00001
 387,-0.00002174,0.00013191,-0.00021489,0.00014474,-0.00039217,-0.00003
 245,0.00000505,0.00001147,0.00000583,0.00001779,0.00002121,-0.00001060
 ,0.00000688,-0.00000714,0.00000219,0.00000019,0.00000846,0.00042208,0.
 00039355,-0.00022785,-0.00027282,-0.00032925,0.00012510,-0.00000014,-0
 .00025585,-0.00005321,0.00006488,0.00006022,0.00001053,-0.00000346,-0.
 00000530,0.00000710,0.00013554,-0.00018208,0.00016651,-0.00006568,0.00
 015308,-0.00020223,-0.00014238,0.00007082,-0.00017619,0.00012434,0.000
 03754,0.00037594,0.00000055,0.00000092,0.00000461,-0.00013632,-0.00007
 601,0.00027634,-0.00000684,-0.00000150,-0.00000255,0.00014718,-0.00022
 187,0.00008230,-0.00000188,0.00000844,-0.00000343,-0.00000407,0.000001
 08,-0.00000777,-0.00000907,0.00001048,-0.00001809,-0.00034702,-0.00028
 612,-0.00031362,-0.00035672,0.00056291,0.00127460,-0.00032650,-0.00008
 231,-0.00003596,-0.00001038,-0.00002000,-0.00004327,0.00000503,0.00003
 299,0.00003042,0.00001325,-0.00006823,-0.00005240,0.03129524,-0.033870
 48,-0.03642989,0.00295095,-0.00430626,-0.00204960,-0.01693335,0.017370
 02,0.00457492,-0.03051782,0.03552109,0.04403730\\0.00000028,0.00000021
 ,0.00000047,-0.00000096,-0.00000089,0.00000049,0.00000055,0.00000184,0
 .00000037,0.00000136,0.00000189,-0.00000067,0.00000032,-0.00000008,-0.
 00000082,0.00000077,0.00000168,-0.00000174,-0.00000116,-0.00000049,-0.
 00000154,-0.00000019,0.00000127,-0.00000269,-0.00000142,0.00000032,-0.
 00000445,0.00000118,0.00000388,-0.00000180,0.00000019,-0.00000062,0.00
 000034,-0.00000102,0.00000034,-0.00000359,-0.00000053,0.00000194,-0.00
 000511,0.00000078,0.00000242,-0.00000335,0.00000170,0.00000436,-0.0000
 0338,0.00000029,0.00000033,0.00000039,-0.00000139,-0.00000186,0.000000
 02,-0.00000038,0.00000020,-0.00000071,0.00000041,0.00000260,-0.0000046
 4,-0.00000082,-0.00000068,-0.00000462,0.00000048,-0.00000018,0.0000012
 9,0.00000026,0.00000067,-0.00000078,-0.00000083,-0.00000112,0.00000006
 ,-0.00000018,0.00000144,-0.00000313,0.00000070,0.00000264,-0.00000303,
 0.00000035,0.00000327,-0.00000480,-0.00000193,-0.00000141,-0.00000294,
 -0.00000249,-0.00000078,-0.00000484,-0.00000214,0.00000024,-0.00000308
 ,-0.00000005,0.00000009,0.00000093,0.00000063,-0.00000082,0.00000210,0
 .00000191,-0.00000069,0.00000364,0.00000160,0.00000096,0.00000091,0.00
 000184,0.00000031,0.00000259,0.00000195,0.00000067,0.00000466,0.000001
 48,0.00000076,0.00000411,0.00000097,0.00000082,0.00000215,0.00000191,-
 0.00000011,0.00000589,0.00000194,0.00000012,0.00000457,-0.00000065,-0.
 00000158,0.00000339,0.00000181,0.00000212,0.00000281,0.00000040,0.0000
 0060,0.00000305,0.00000175,-0.00000070,0.00000410,0.00000126,0.0000005
 2,0.00000259,0.00000181,0.00000161,0.00000153,0.00000018,-0.00000073,0
 .00000025,-0.00000073,-0.00000151,0.00000096,-0.00000157,-0.00000244,-
 0.00000076,-0.00000090,-0.00000227,0.00000142,-0.00000214,-0.00000279,
 -0.00000037,-0.00000122,-0.00000110,-0.00000106,-0.00000198,-0.0000040
 5,0.00000257,-0.00000077,-0.00000269,0.00000303,-0.00000227,-0.0000036
 2,0.00000006,-0.00000278,-0.00000343,-0.00000140,-0.00000201,-0.000004
 36,0.00000268,-0.00000306,-0.00000485,0.00000080,0.00000017,0.00000105
 ,-0.00000193,0.00000016,0.00000050,0.00000019,0.00000254,0.00000233,-0
 .00000077,0.00000087,0.00000271,-0.00000162,0.00000130,0.00000246,0.00
 000016,0.00000159,0.00000338,-0.00000135,-0.00000048,-0.00000165,0.000
 00143,-0.00000002,-0.00000144,0.00000225,-0.00000119,-0.00000232,0.000
 00107,-0.00000046,-0.00000127,0.00000165\\\@


 I think that all right-thinking people in this
 country are sick and tired of being told that
 ordinary, decent people are fed up in this country
 with being sick and tired.  I'm certainly not!
 But I'm sick and tired of being told that I am!
                               -- Monty Python
 Job cpu time:       5 days 15 hours 49 minutes 48.7 seconds.
 Elapsed time:       0 days  5 hours 43 minutes 28.9 seconds.
 File lengths (MBytes):  RWF=  12724 Int=      0 D2E=      0 Chk=     88 Scr=      8
 Normal termination of Gaussian 16 at Tue May  6 03:57:41 2025.
