 Entering Gaussian System, Link 0=/sysapps/ubuntu-applications/gaussian-new/avx/g16//g16
 Input=irc-min.in
 Output=irc-min.log
 Initial command:
 /sysapps/ubuntu-applications/gaussian-new/avx/g16/l1.exe "/data/temp-scratch/selhajj1/310958/Gau-962212.inp" -scrdir="/data/temp-scratch/selhajj1/310958/"
 Entering Link 1 = /sysapps/ubuntu-applications/gaussian-new/avx/g16/l1.exe PID=    962214.
  
 Copyright (c) 1988,1990,1992,1993,1995,1998,2003,2009,2016,
            Gaussian, Inc.  All Rights Reserved.
  
 This is part of the Gaussian(R) 16 program.  It is based on
 the Gaussian(R) 09 system (copyright 2009, Gaussian, Inc.),
 the Gaussian(R) 03 system (copyright 2003, Gaussian, Inc.),
 the Gaussian(R) 98 system (copyright 1998, Gaussian, Inc.),
 the Gaussian(R) 94 system (copyright 1995, Gaussian, Inc.),
 the Gaussian 92(TM) system (copyright 1992, Gaussian, Inc.),
 the Gaussian 90(TM) system (copyright 1990, Gaussian, Inc.),
 the Gaussian 88(TM) system (copyright 1988, Gaussian, Inc.),
 the Gaussian 86(TM) system (copyright 1986, Carnegie Mellon
 University), and the Gaussian 82(TM) system (copyright 1983,
 Carnegie Mellon University). Gaussian is a federally registered
 trademark of Gaussian, Inc.
  
 This software contains proprietary and confidential information,
 including trade secrets, belonging to Gaussian, Inc.
  
 This software is provided under written license and may be
 used, copied, transmitted, or stored only in accord with that
 written license.
  
 The following legend is applicable only to US Government
 contracts under FAR:
  
                    RESTRICTED RIGHTS LEGEND
  
 Use, reproduction and disclosure by the US Government is
 subject to restrictions as set forth in subparagraphs (a)
 and (c) of the Commercial Computer Software - Restricted
 Rights clause in FAR 52.227-19.
  
 Gaussian, Inc.
 340 Quinnipiac St., Bldg. 40, Wallingford CT 06492
  
  
 ---------------------------------------------------------------
 Warning -- This program may not be used in any manner that
 competes with the business of Gaussian, Inc. or will provide
 assistance to any competitor of Gaussian, Inc.  The licensee
 of this program is prohibited from giving any competitor of
 Gaussian, Inc. access to this program.  By using this program,
 the user acknowledges that Gaussian, Inc. is engaged in the
 business of creating and licensing software in the field of
 computational chemistry and represents and warrants to the
 licensee that it is not a competitor of Gaussian, Inc. and that
 it will not use this program in any manner prohibited above.
 ---------------------------------------------------------------
  

 Cite this work as:
 Gaussian 16, Revision A.03,
 M. J. Frisch, G. W. Trucks, H. B. Schlegel, G. E. Scuseria, 
 M. A. Robb, J. R. Cheeseman, G. Scalmani, V. Barone, 
 G. A. Petersson, H. Nakatsuji, X. Li, M. Caricato, A. V. Marenich, 
 J. Bloino, B. G. Janesko, R. Gomperts, B. Mennucci, H. P. Hratchian, 
 J. V. Ortiz, A. F. Izmaylov, J. L. Sonnenberg, D. Williams-Young, 
 F. Ding, F. Lipparini, F. Egidi, J. Goings, B. Peng, A. Petrone, 
 T. Henderson, D. Ranasinghe, V. G. Zakrzewski, J. Gao, N. Rega, 
 G. Zheng, W. Liang, M. Hada, M. Ehara, K. Toyota, R. Fukuda, 
 J. Hasegawa, M. Ishida, T. Nakajima, Y. Honda, O. Kitao, H. Nakai, 
 T. Vreven, K. Throssell, J. A. Montgomery, Jr., J. E. Peralta, 
 F. Ogliaro, M. J. Bearpark, J. J. Heyd, E. N. Brothers, K. N. Kudin, 
 V. N. Staroverov, T. A. Keith, R. Kobayashi, J. Normand, 
 K. Raghavachari, A. P. Rendell, J. C. Burant, S. S. Iyengar, 
 J. Tomasi, M. Cossi, J. M. Millam, M. Klene, C. Adamo, R. Cammi, 
 J. W. Ochterski, R. L. Martin, K. Morokuma, O. Farkas, 
 J. B. Foresman, and D. J. Fox, Gaussian, Inc., Wallingford CT, 2016.
 
 ******************************************
 Gaussian 16:  ES64L-G16RevA.03 25-Dec-2016
                 3-May-2025 
 ******************************************
 %chk=irc-min.chk
 %mem=92Gb
 %nprocshared=24
 Will use up to   24 processors via shared memory.
 ----------------------------------------------------------------------
 #P UMN15/genecp scf=(maxcyc=500) irc=(maxpoints=100,recorrect=never,ca
 lcfc,maxcycles=500,nogradstop) scrf=(smd,solvent=DiChloroEthane)
 ----------------------------------------------------------------------
 1/6=500,10=4,18=10,26=3,38=1,42=100,44=3,108=-1,131=1,172=1/1,23;
 2/12=2,17=6,18=5,29=1,40=1/2;
 3/5=7,11=2,16=1,17=8,25=1,30=1,70=32201,71=2,72=10,74=-73,116=2,140=1/1,2,3;
 4//1;
 5/5=2,7=500,38=5,53=10/2;
 8/6=4,10=90,11=11/1;
 11/6=1,8=1,9=11,15=111,16=1/1,2,10;
 10/6=1,13=1/2;
 6/7=2,8=2,9=2,10=2,28=1/1;
 7/10=1,18=20,25=1/1,2,3,16;
 1/6=500,10=4,18=10,26=3,42=100,44=3,108=-1,131=1/23(2);
 2/29=1/2;
 99/5=20/99;
 2/29=1/2;
 3/5=7,6=1,11=2,16=1,17=8,25=1,30=1,70=32205,71=2,72=10,74=-73,82=7,116=2,140=1/1,2,3;
 4/5=5,16=3,69=1/1;
 5/5=2,7=500,38=5,53=10/2;
 8/6=4,10=90,11=11/1;
 11/6=1,8=1,9=11,15=111,16=1/1,2,10;
 10/6=1,13=1/2;
 7/10=1,18=20,25=1/1,2,3,16;
 1/6=500,18=10,26=3,42=100,44=3,108=-1,131=1/23(-8);
 2/29=1/2;
 6/7=2,8=2,9=2,10=2,19=2,28=1/1;
 99/5=20,9=1/99;
 Leave Link    1 at Sat May  3 20:23:28 2025, MaxMem= 12348030976 cpu:               3.5 elap:               0.2
 (Enter /sysapps/ubuntu-applications/gaussian-new/avx/g16/l101.exe)
 ---
 Opt
 ---
 Symbolic Z-matrix:
 Charge =  0 Multiplicity = 1
 C                    -2.19254  -0.15379   0.90292 
 C                    -1.76318   0.30443  -0.41656 
 C                    -1.17517  -0.24907   1.95216 
 O                     0.01641  -0.52441   1.69217 
 O                    -0.61625   0.02947  -0.84128 
 O                     3.14041  -1.09982   1.0673 
 O                     2.38207  -0.3968   -1.9464 
 O                     0.27028   2.13822   0.7575 
 S                     1.15552   3.0469   -0.02678 
 S                     3.65408  -0.03671   1.99101 
 S                     2.12886  -1.87411  -1.94877 
 O                     2.0776    2.14865  -0.79262 
 O                     1.72803   4.18442   0.64403 
 O                     2.68297   1.0877    1.85408 
 O                     4.06461  -0.43296   3.31063 
 O                     1.3572   -2.14063  -0.7032 
 O                     1.63674  -2.46188  -3.16991 
 C                     3.80813  -2.63647  -1.65643 
 C                     5.15169   0.56468   1.10965 
 C                     0.04877   3.73695  -1.33618 
 F                     3.70668  -3.55387  -0.71613 
 F                     4.67479  -1.71376  -1.28937 
 F                     4.21527  -3.1963   -2.77931 
 F                     4.79049   0.95634  -0.10203 
 F                     6.02914  -0.41521   1.0161 
 F                     5.67998   1.5781    1.76622 
 F                    -0.13795   2.82957  -2.27997 
 F                     0.60443   4.8103   -1.86149 
 F                    -1.11577   4.05706  -0.79941 
 C                    -4.74396  -0.15651   1.20478 
 C                    -4.81137  -1.71956   1.14131 
 C                    -6.1327   -2.21851   0.71471 
 C                    -4.60364  -2.22586   2.51913 
 C                    -1.44861  -2.75143  -0.10055 
 C                    -3.09956  -2.6927   -1.84423 
 C                    -1.75378  -2.94758  -1.4103 
 H                    -0.46232  -2.95251   0.31252 
 H                    -3.38752  -2.80058  -2.892 
 H                    -1.00904  -3.3066   -2.12283 
 N                    -7.18251  -2.6202    0.44445 
 N                    -4.45038  -2.58468   3.60799 
 N                    -3.749    -2.25929   0.27585 
 N                    -4.05659  -2.37447  -1.02026 
 C                    -2.46367  -2.20323   0.75395 
 H                    -2.37453  -2.35512   1.832 
 H                    -5.2374    0.09239   2.15661 
 C                    -5.47792   0.65401   0.14843 
 C                    -5.61623   2.01391   0.47014 
 C                    -5.9727    0.19149  -1.07556 
 C                    -6.21052   2.90121  -0.42383 
 H                    -5.23621   2.37735   1.429 
 C                    -6.58032   1.08156  -1.96733 
 H                    -5.8702   -0.85336  -1.36822 
 C                    -6.69399   2.43471  -1.65036 
 H                    -6.30365   3.95713  -0.16119 
 H                    -6.95902   0.70737  -2.92078 
 H                    -7.16337   3.12569  -2.35399 
 Lu                    1.41623   0.11886   0.09053 
 O                    -3.40642   0.3019    1.41021 
 C                    -1.60812  -0.06991   3.36458 
 H                    -2.05376   0.92976   3.48057 
 H                    -2.39742  -0.79447   3.6221 
 H                    -0.74732  -0.19235   4.03113 
 C                    -2.69096   1.08588  -1.27705 
 H                    -3.51669   0.44313  -1.61433 
 H                    -3.1431    1.90874  -0.70352 
 H                    -2.14748   1.46156  -2.14983 
 
 ITRead=  0  0  0  0  0  0  0  0  0  0  0  0  0  0  0  0  0  0  0  0
 ITRead=  0  0  0  0  0  0  0  0  0  0  0  0  0  0  0  0  0  0  0  0
 ITRead=  0  0  0  0  0  0  0  0  0  0  0  0  0  0  0  0  0  0  0  0
 ITRead=  0  0  0  0  0  0  0
 MicOpt= -1 -1 -1 -1 -1 -1 -1 -1 -1 -1 -1 -1 -1 -1 -1 -1 -1 -1 -1 -1
 MicOpt= -1 -1 -1 -1 -1 -1 -1 -1 -1 -1 -1 -1 -1 -1 -1 -1 -1 -1 -1 -1
 MicOpt= -1 -1 -1 -1 -1 -1 -1 -1 -1 -1 -1 -1 -1 -1 -1 -1 -1 -1 -1 -1
 MicOpt= -1 -1 -1 -1 -1 -1 -1
 NAtoms=     67 NQM=       67 NQMF=       0 NMMI=      0 NMMIF=      0
                NMic=       0 NMicF=      0.
                    Isotopes and Nuclear Properties:
 (Nuclear quadrupole moments (NQMom) in fm**2, nuclear magnetic moments (NMagM)
  in nuclear magnetons)

  Atom         1           2           3           4           5           6           7           8           9          10
 IAtWgt=          12          12          12          16          16          16          16          16          32          32
 AtmWgt=  12.0000000  12.0000000  12.0000000  15.9949146  15.9949146  15.9949146  15.9949146  15.9949146  31.9720718  31.9720718
 NucSpn=           0           0           0           0           0           0           0           0           0           0
 AtZEff=  -0.0000000  -0.0000000  -0.0000000  -0.0000000  -0.0000000  -0.0000000  -0.0000000  -0.0000000  -0.0000000  -0.0000000
 NQMom=    0.0000000   0.0000000   0.0000000   0.0000000   0.0000000   0.0000000   0.0000000   0.0000000   0.0000000   0.0000000
 NMagM=    0.0000000   0.0000000   0.0000000   0.0000000   0.0000000   0.0000000   0.0000000   0.0000000   0.0000000   0.0000000
 AtZNuc=   6.0000000   6.0000000   6.0000000   8.0000000   8.0000000   8.0000000   8.0000000   8.0000000  16.0000000  16.0000000

  Atom        11          12          13          14          15          16          17          18          19          20
 IAtWgt=          32          16          16          16          16          16          16          12          12          12
 AtmWgt=  31.9720718  15.9949146  15.9949146  15.9949146  15.9949146  15.9949146  15.9949146  12.0000000  12.0000000  12.0000000
 NucSpn=           0           0           0           0           0           0           0           0           0           0
 AtZEff=  -0.0000000  -0.0000000  -0.0000000  -0.0000000  -0.0000000  -0.0000000  -0.0000000  -0.0000000  -0.0000000  -0.0000000
 NQMom=    0.0000000   0.0000000   0.0000000   0.0000000   0.0000000   0.0000000   0.0000000   0.0000000   0.0000000   0.0000000
 NMagM=    0.0000000   0.0000000   0.0000000   0.0000000   0.0000000   0.0000000   0.0000000   0.0000000   0.0000000   0.0000000
 AtZNuc=  16.0000000   8.0000000   8.0000000   8.0000000   8.0000000   8.0000000   8.0000000   6.0000000   6.0000000   6.0000000

  Atom        21          22          23          24          25          26          27          28          29          30
 IAtWgt=          19          19          19          19          19          19          19          19          19          12
 AtmWgt=  18.9984032  18.9984032  18.9984032  18.9984032  18.9984032  18.9984032  18.9984032  18.9984032  18.9984032  12.0000000
 NucSpn=           1           1           1           1           1           1           1           1           1           0
 AtZEff=  -0.0000000  -0.0000000  -0.0000000  -0.0000000  -0.0000000  -0.0000000  -0.0000000  -0.0000000  -0.0000000  -0.0000000
 NQMom=    0.0000000   0.0000000   0.0000000   0.0000000   0.0000000   0.0000000   0.0000000   0.0000000   0.0000000   0.0000000
 NMagM=    2.6288670   2.6288670   2.6288670   2.6288670   2.6288670   2.6288670   2.6288670   2.6288670   2.6288670   0.0000000
 AtZNuc=   9.0000000   9.0000000   9.0000000   9.0000000   9.0000000   9.0000000   9.0000000   9.0000000   9.0000000   6.0000000

  Atom        31          32          33          34          35          36          37          38          39          40
 IAtWgt=          12          12          12          12          12          12           1           1           1          14
 AtmWgt=  12.0000000  12.0000000  12.0000000  12.0000000  12.0000000  12.0000000   1.0078250   1.0078250   1.0078250  14.0030740
 NucSpn=           0           0           0           0           0           0           1           1           1           2
 AtZEff=  -0.0000000  -0.0000000  -0.0000000  -0.0000000  -0.0000000  -0.0000000  -0.0000000  -0.0000000  -0.0000000  -0.0000000
 NQMom=    0.0000000   0.0000000   0.0000000   0.0000000   0.0000000   0.0000000   0.0000000   0.0000000   0.0000000   2.0440000
 NMagM=    0.0000000   0.0000000   0.0000000   0.0000000   0.0000000   0.0000000   2.7928460   2.7928460   2.7928460   0.4037610
 AtZNuc=   6.0000000   6.0000000   6.0000000   6.0000000   6.0000000   6.0000000   1.0000000   1.0000000   1.0000000   7.0000000

  Atom        41          42          43          44          45          46          47          48          49          50
 IAtWgt=          14          14          14          12           1           1          12          12          12          12
 AtmWgt=  14.0030740  14.0030740  14.0030740  12.0000000   1.0078250   1.0078250  12.0000000  12.0000000  12.0000000  12.0000000
 NucSpn=           2           2           2           0           1           1           0           0           0           0
 AtZEff=  -0.0000000  -0.0000000  -0.0000000  -0.0000000  -0.0000000  -0.0000000  -0.0000000  -0.0000000  -0.0000000  -0.0000000
 NQMom=    2.0440000   2.0440000   2.0440000   0.0000000   0.0000000   0.0000000   0.0000000   0.0000000   0.0000000   0.0000000
 NMagM=    0.4037610   0.4037610   0.4037610   0.0000000   2.7928460   2.7928460   0.0000000   0.0000000   0.0000000   0.0000000
 AtZNuc=   7.0000000   7.0000000   7.0000000   6.0000000   1.0000000   1.0000000   6.0000000   6.0000000   6.0000000   6.0000000

  Atom        51          52          53          54          55          56          57          58          59          60
 IAtWgt=           1          12           1          12           1           1           1         175          16          12
 AtmWgt=   1.0078250  12.0000000   1.0078250  12.0000000   1.0078250   1.0078250   1.0078250 174.9409000  15.9949146  12.0000000
 NucSpn=           1           0           1           0           1           1           1           7           0           0
 AtZEff=  -0.0000000  -0.0000000  -0.0000000  -0.0000000  -0.0000000  -0.0000000  -0.0000000  -0.0000000  -0.0000000  -0.0000000
 NQMom=    0.0000000   0.0000000   0.0000000   0.0000000   0.0000000   0.0000000   0.0000000 349.0000000   0.0000000   0.0000000
 NMagM=    2.7928460   0.0000000   2.7928460   0.0000000   2.7928460   2.7928460   2.7928460   2.2327000   0.0000000   0.0000000
 AtZNuc=   1.0000000   6.0000000   1.0000000   6.0000000   1.0000000   1.0000000   1.0000000  71.0000000   8.0000000   6.0000000

  Atom        61          62          63          64          65          66          67
 IAtWgt=           1           1           1          12           1           1           1
 AtmWgt=   1.0078250   1.0078250   1.0078250  12.0000000   1.0078250   1.0078250   1.0078250
 NucSpn=           1           1           1           0           1           1           1
 AtZEff=  -0.0000000  -0.0000000  -0.0000000  -0.0000000  -0.0000000  -0.0000000  -0.0000000
 NQMom=    0.0000000   0.0000000   0.0000000   0.0000000   0.0000000   0.0000000   0.0000000
 NMagM=    2.7928460   2.7928460   2.7928460   0.0000000   2.7928460   2.7928460   2.7928460
 AtZNuc=   1.0000000   1.0000000   1.0000000   6.0000000   1.0000000   1.0000000   1.0000000
 Leave Link  101 at Sat May  3 20:23:28 2025, MaxMem= 12348030976 cpu:               3.0 elap:               0.2
 (Enter /sysapps/ubuntu-applications/gaussian-new/avx/g16/l123.exe)
 IRC-IRC-IRC-IRC-IRC-IRC-IRC-IRC-IRC-IRC-IRC-IRC-IRC-IRC-IRC-IRC-IRC-IRC
 ------------------------------------------------------------------------
 INPUT DATA FOR L123
 ------------------------------------------------------------------------
 GENERAL PARAMETERS:
 Follow reaction path in both directions.
 Maximum points per path      = 100
 Step size                    =   0.100 bohr
 Integration scheme           = HPC                                 
    Redo corrector integration= Never                               
    DWI Weight Power          =  2
    DWI will use Hessian update vectors when possible.
 Initial Hessian              = CalcFC
 Hessian evaluation           = All updating
 Hessian updating method      = Bofill                              
 ------------------------------------------------------------------------
 IRC-IRC-IRC-IRC-IRC-IRC-IRC-IRC-IRC-IRC-IRC-IRC-IRC-IRC-IRC-IRC-IRC-IRC
 Leave Link  123 at Sat May  3 20:23:29 2025, MaxMem= 12348030976 cpu:               2.6 elap:               0.2
 (Enter /sysapps/ubuntu-applications/gaussian-new/avx/g16/l202.exe)
 Symmetry turned off by external request.
 Stoichiometry    C22H16F9LuN4O12S3
 Framework group  C1[X(C22H16F9LuN4O12S3)]
 Deg. of freedom   195
 Full point group                 C1      NOp   1
                          Input orientation:                          
 ---------------------------------------------------------------------
 Center     Atomic      Atomic             Coordinates (Angstroms)
 Number     Number       Type             X           Y           Z
 ---------------------------------------------------------------------
      1          6           0       -2.192541   -0.153791    0.902916
      2          6           0       -1.763183    0.304434   -0.416557
      3          6           0       -1.175173   -0.249070    1.952159
      4          8           0        0.016406   -0.524410    1.692165
      5          8           0       -0.616250    0.029469   -0.841280
      6          8           0        3.140407   -1.099823    1.067296
      7          8           0        2.382074   -0.396804   -1.946403
      8          8           0        0.270282    2.138220    0.757500
      9         16           0        1.155524    3.046898   -0.026781
     10         16           0        3.654080   -0.036707    1.991008
     11         16           0        2.128864   -1.874114   -1.948766
     12          8           0        2.077601    2.148648   -0.792621
     13          8           0        1.728025    4.184418    0.644028
     14          8           0        2.682967    1.087695    1.854083
     15          8           0        4.064607   -0.432960    3.310634
     16          8           0        1.357195   -2.140631   -0.703201
     17          8           0        1.636740   -2.461882   -3.169907
     18          6           0        3.808127   -2.636469   -1.656429
     19          6           0        5.151692    0.564680    1.109653
     20          6           0        0.048768    3.736947   -1.336180
     21          9           0        3.706683   -3.553865   -0.716125
     22          9           0        4.674786   -1.713757   -1.289373
     23          9           0        4.215272   -3.196299   -2.779314
     24          9           0        4.790491    0.956344   -0.102034
     25          9           0        6.029141   -0.415210    1.016103
     26          9           0        5.679977    1.578102    1.766224
     27          9           0       -0.137946    2.829574   -2.279971
     28          9           0        0.604429    4.810300   -1.861494
     29          9           0       -1.115774    4.057059   -0.799413
     30          6           0       -4.743955   -0.156508    1.204775
     31          6           0       -4.811370   -1.719555    1.141306
     32          6           0       -6.132697   -2.218513    0.714710
     33          6           0       -4.603639   -2.225863    2.519130
     34          6           0       -1.448610   -2.751428   -0.100554
     35          6           0       -3.099555   -2.692702   -1.844225
     36          6           0       -1.753784   -2.947584   -1.410302
     37          1           0       -0.462321   -2.952512    0.312517
     38          1           0       -3.387518   -2.800582   -2.892000
     39          1           0       -1.009036   -3.306599   -2.122827
     40          7           0       -7.182507   -2.620204    0.444448
     41          7           0       -4.450379   -2.584681    3.607991
     42          7           0       -3.748998   -2.259287    0.275849
     43          7           0       -4.056590   -2.374467   -1.020265
     44          6           0       -2.463666   -2.203231    0.753951
     45          1           0       -2.374530   -2.355119    1.831996
     46          1           0       -5.237400    0.092385    2.156607
     47          6           0       -5.477916    0.654013    0.148431
     48          6           0       -5.616231    2.013910    0.470142
     49          6           0       -5.972704    0.191492   -1.075556
     50          6           0       -6.210519    2.901205   -0.423834
     51          1           0       -5.236209    2.377346    1.428997
     52          6           0       -6.580316    1.081556   -1.967325
     53          1           0       -5.870201   -0.853358   -1.368220
     54          6           0       -6.693989    2.434706   -1.650357
     55          1           0       -6.303653    3.957133   -0.161191
     56          1           0       -6.959015    0.707368   -2.920779
     57          1           0       -7.163367    3.125695   -2.353985
     58         71           0        1.416229    0.118858    0.090528
     59          8           0       -3.406416    0.301900    1.410205
     60          6           0       -1.608121   -0.069909    3.364582
     61          1           0       -2.053760    0.929757    3.480566
     62          1           0       -2.397424   -0.794474    3.622095
     63          1           0       -0.747315   -0.192347    4.031127
     64          6           0       -2.690962    1.085885   -1.277050
     65          1           0       -3.516691    0.443128   -1.614329
     66          1           0       -3.143101    1.908744   -0.703522
     67          1           0       -2.147484    1.461557   -2.149834
 ---------------------------------------------------------------------
 Rotational constants (GHZ):           0.0830795           0.0374060           0.0330133
 Leave Link  202 at Sat May  3 20:23:29 2025, MaxMem= 12348030976 cpu:               2.4 elap:               0.1
 (Enter /sysapps/ubuntu-applications/gaussian-new/avx/g16/l301.exe)
 General basis read from cards:  (5D, 7F)
 Centers:      37     38     39     45     46     51     53     55     56     57
 Centers:      61     62     63     65     66     67
 S 3 1.00
     Exponent=  1.3010701000D+01 Coefficients=  1.9682158000D-02
     Exponent=  1.9622572000D+00 Coefficients=  1.3796524000D-01
     Exponent=  4.4453796000D-01 Coefficients=  4.7831935000D-01
 S 1 1.00
     Exponent=  1.2194962000D-01 Coefficients=  1.0000000000D+00
 P 1 1.00
     Exponent=  8.0000000000D-01 Coefficients=  1.0000000000D+00
 ****
 Centers:       1      2      3     18     19     20     30     31     32     33
 Centers:      34     35     36     44     47     48     49     50     52     54
 Centers:      60     64
 S 5 1.00
     Exponent=  1.2384016938D+03 Coefficients=  5.4568832082D-03
     Exponent=  1.8629004992D+02 Coefficients=  4.0638409211D-02
     Exponent=  4.2251176346D+01 Coefficients=  1.8025593888D-01
     Exponent=  1.1676557932D+01 Coefficients=  4.6315121755D-01
     Exponent=  3.5930506482D+00 Coefficients=  4.4087173314D-01
 S 1 1.00
     Exponent=  4.0245147363D-01 Coefficients=  1.0000000000D+00
 S 1 1.00
     Exponent=  1.3090182668D-01 Coefficients=  1.0000000000D+00
 P 3 1.00
     Exponent=  9.4680970621D+00 Coefficients=  3.8387871728D-02
     Exponent=  2.0103545142D+00 Coefficients=  2.1117025112D-01
     Exponent=  5.4771004707D-01 Coefficients=  5.1328172114D-01
 P 1 1.00
     Exponent=  1.5268613795D-01 Coefficients=  1.0000000000D+00
 D 1 1.00
     Exponent=  8.0000000000D-01 Coefficients=  1.0000000000D+00
 ****
 Centers:      40     41     42     43
 S 5 1.00
     Exponent=  1.7128415853D+03 Coefficients= -5.3934125305D-03
     Exponent=  2.5764812677D+02 Coefficients= -4.0221581118D-02
     Exponent=  5.8458245853D+01 Coefficients= -1.7931144990D-01
     Exponent=  1.6198367905D+01 Coefficients= -4.6376317823D-01
     Exponent=  5.0052600809D+00 Coefficients= -4.4171422662D-01
 S 1 1.00
     Exponent=  5.8731856571D-01 Coefficients=  1.0000000000D+00
 S 1 1.00
     Exponent=  1.8764592253D-01 Coefficients=  1.0000000000D+00
 P 3 1.00
     Exponent=  1.3571470233D+01 Coefficients= -4.0072398852D-02
     Exponent=  2.9257372874D+00 Coefficients= -2.1807045028D-01
     Exponent=  7.9927750754D-01 Coefficients= -5.1294466049D-01
 P 1 1.00
     Exponent=  2.1954348034D-01 Coefficients=  1.0000000000D+00
 D 1 1.00
     Exponent=  1.0000000000D+00 Coefficients=  1.0000000000D+00
 ****
 Centers:       4      5      6      7      8     12     13     14     15     16
 Centers:      17     59
 S 5 1.00
     Exponent=  2.2661767785D+03 Coefficients= -5.3431809926D-03
     Exponent=  3.4087010191D+02 Coefficients= -3.9890039230D-02
     Exponent=  7.7363135167D+01 Coefficients= -1.7853911985D-01
     Exponent=  2.1479644940D+01 Coefficients= -4.6427684959D-01
     Exponent=  6.6589433124D+00 Coefficients= -4.4309745172D-01
 S 1 1.00
     Exponent=  8.0975975668D-01 Coefficients=  1.0000000000D+00
 S 1 1.00
     Exponent=  2.5530772234D-01 Coefficients=  1.0000000000D+00
 P 3 1.00
     Exponent=  1.7721504317D+01 Coefficients=  4.3394573193D-02
     Exponent=  3.8635505440D+00 Coefficients=  2.3094120765D-01
     Exponent=  1.0480920883D+00 Coefficients=  5.1375311064D-01
 P 1 1.00
     Exponent=  2.7641544411D-01 Coefficients=  1.0000000000D+00
 D 1 1.00
     Exponent=  1.2000000000D+00 Coefficients=  1.0000000000D+00
 ****
 Centers:      21     22     23     24     25     26     27     28     29
 S 5 1.00
     Exponent=  2.8948325990D+03 Coefficients= -5.3408255515D-03
     Exponent=  4.3541939120D+02 Coefficients= -3.9904258866D-02
     Exponent=  9.8843328866D+01 Coefficients= -1.7912768038D-01
     Exponent=  2.7485198001D+01 Coefficients= -4.6758090825D-01
     Exponent=  8.5405498171D+00 Coefficients= -4.4653131020D-01
 S 1 1.00
     Exponent=  1.0654578038D+00 Coefficients=  1.0000000000D+00
 S 1 1.00
     Exponent=  3.3247346748D-01 Coefficients=  1.0000000000D+00
 P 3 1.00
     Exponent=  2.2696633924D+01 Coefficients= -4.5212874436D-02
     Exponent=  4.9872339257D+00 Coefficients= -2.3754317067D-01
     Exponent=  1.3491613954D+00 Coefficients= -5.1287353587D-01
 P 1 1.00
     Exponent=  3.4829881977D-01 Coefficients=  1.0000000000D+00
 D 1 1.00
     Exponent=  1.4000000000D+00 Coefficients=  1.0000000000D+00
 ****
 Centers:       9     10     11
 S 5 1.00
     Exponent=  9.1849303010D+03 Coefficients= -2.2294387756D-03
     Exponent=  1.3815105503D+03 Coefficients= -1.6683029937D-02
     Exponent=  3.1387147580D+02 Coefficients= -7.5262436116D-02
     Exponent=  8.8053870623D+01 Coefficients= -1.9376827038D-01
     Exponent=  2.7039914905D+01 Coefficients= -1.7718020803D-01
 S 3 1.00
     Exponent=  4.5648731303D+01 Coefficients= -1.0736062573D-01
     Exponent=  4.9664522326D+00 Coefficients=  6.5066293018D-01
     Exponent=  2.0116242047D+00 Coefficients=  5.9712155354D-01
 S 1 1.00
     Exponent=  3.5661077013D-01 Coefficients=  1.0000000000D+00
 S 1 1.00
     Exponent=  1.3507221477D-01 Coefficients=  1.0000000000D+00
 P 5 1.00
     Exponent=  2.6198233439D+02 Coefficients= -9.2729929822D-03
     Exponent=  6.1306894736D+01 Coefficients= -6.6547669241D-02
     Exponent=  1.9103729887D+01 Coefficients= -2.4828595903D-01
     Exponent=  6.6567720378D+00 Coefficients= -4.8703847402D-01
     Exponent=  2.3959635161D+00 Coefficients= -3.9337850312D-01
 P 1 1.00
     Exponent=  6.1776161679D-01 Coefficients=  1.0000000000D+00
 P 1 1.00
     Exponent=  1.6993376871D-01 Coefficients=  1.0000000000D+00
 D 1 1.00
     Exponent=  5.5000000000D-01 Coefficients=  1.0000000000D+00
 ****
 Centers:      58
 S 5 1.00
     Exponent=  9.5169767000D+04 Coefficients=  2.2000000000D-05
     Exponent=  1.5488403000D+04 Coefficients=  1.4500000000D-04
     Exponent=  3.7762335000D+03 Coefficients=  6.5100000000D-04
     Exponent=  1.0790501000D+03 Coefficients=  2.0380000000D-03
     Exponent=  2.6895380000D+02 Coefficients=  5.1270000000D-03
 S 1 1.00
     Exponent=  6.3467900000D+01 Coefficients=  1.0000000000D+00
 S 1 1.00
     Exponent=  4.5133200000D+01 Coefficients=  1.0000000000D+00
 S 1 1.00
     Exponent=  2.1456800000D+01 Coefficients=  1.0000000000D+00
 S 1 1.00
     Exponent=  5.3483000000D+00 Coefficients=  1.0000000000D+00
 S 1 1.00
     Exponent=  2.6778000000D+00 Coefficients=  1.0000000000D+00
 S 1 1.00
     Exponent=  1.0287000000D+00 Coefficients=  1.0000000000D+00
 S 1 1.00
     Exponent=  4.4080000000D-01 Coefficients=  1.0000000000D+00
 S 1 1.00
     Exponent=  7.9100000000D-02 Coefficients=  1.0000000000D+00
 S 1 1.00
     Exponent=  3.1300000000D-02 Coefficients=  1.0000000000D+00
 P 3 1.00
     Exponent=  1.2333733920D+01 Coefficients= -1.5313031066D-01
     Exponent=  1.1080331415D+01 Coefficients= -2.0300664852D-01
     Exponent=  2.0341747228D+00 Coefficients= -1.9458361263D-01
 P 6 1.00
     Exponent=  1.5005317313D+03 Coefficients= -1.0192569555D-03
     Exponent=  3.8239748937D+02 Coefficients= -5.9476212135D-03
     Exponent=  1.3299969628D+02 Coefficients= -1.6265160929D-02
     Exponent=  4.6110032419D+01 Coefficients= -3.5623845839D-02
     Exponent=  1.5583529011D+01 Coefficients=  2.3709171074D-01
     Exponent=  5.7856677022D+00 Coefficients= -3.0670977844D-01
 P 1 1.00
     Exponent=  3.7823361008D+00 Coefficients=  1.0000000000D+00
 P 1 1.00
     Exponent=  1.3682592248D+00 Coefficients=  1.0000000000D+00
 P 1 1.00
     Exponent=  5.7288205601D-01 Coefficients=  1.0000000000D+00
 P 1 1.00
     Exponent=  2.2793165135D-01 Coefficients=  1.0000000000D+00
 P 1 1.00
     Exponent=  8.1403917986D-02 Coefficients=  1.0000000000D+00
 P 1 1.00
     Exponent=  2.9091071778D-02 Coefficients=  1.0000000000D+00
 D 6 1.00
     Exponent=  4.8452750000D+02 Coefficients=  2.2860000000D-03
     Exponent=  1.4666550000D+02 Coefficients=  1.8629000000D-02
     Exponent=  5.6377900000D+01 Coefficients=  7.4088000000D-02
     Exponent=  2.3671100000D+01 Coefficients=  1.6155400000D-01
     Exponent=  9.4401000000D+00 Coefficients=  3.0809100000D-01
     Exponent=  4.3712000000D+00 Coefficients=  4.4833400000D-01
 D 1 1.00
     Exponent=  1.9580000000D+00 Coefficients=  1.0000000000D+00
 D 1 1.00
     Exponent=  7.2720000000D-01 Coefficients=  1.0000000000D+00
 D 1 1.00
     Exponent=  2.4600000000D-01 Coefficients=  1.0000000000D+00
 D 1 1.00
     Exponent=  7.4400000000D-02 Coefficients=  1.0000000000D+00
 F 5 1.00
     Exponent=  1.7515590000D+02 Coefficients=  4.1020000000D-03
     Exponent=  6.2890900000D+01 Coefficients=  3.9086000000D-02
     Exponent=  2.8362400000D+01 Coefficients=  1.4704400000D-01
     Exponent=  1.3247800000D+01 Coefficients=  2.7109200000D-01
     Exponent=  6.1440000000D+00 Coefficients=  3.4566500000D-01
 F 1 1.00
     Exponent=  2.7623000000D+00 Coefficients=  1.0000000000D+00
 F 1 1.00
     Exponent=  1.1574000000D+00 Coefficients=  1.0000000000D+00
 F 1 1.00
     Exponent=  4.2440000000D-01 Coefficients=  1.0000000000D+00
 G 1 1.00
     Exponent=  7.0090000000D-01 Coefficients=  1.0000000000D+00
 ****
 ======================================================================================================
                                       Pseudopotential Parameters
 ======================================================================================================
  Center     Atomic      Valence      Angular      Power
  Number     Number     Electrons     Momentum     of R      Exponent        Coefficient   SO-Coeffient
 ======================================================================================================
    1          6
                                   No pseudopotential on this center.
    2          6
                                   No pseudopotential on this center.
    3          6
                                   No pseudopotential on this center.
    4          8
                                   No pseudopotential on this center.
    5          8
                                   No pseudopotential on this center.
    6          8
                                   No pseudopotential on this center.
    7          8
                                   No pseudopotential on this center.
    8          8
                                   No pseudopotential on this center.
    9         16
                                   No pseudopotential on this center.
   10         16
                                   No pseudopotential on this center.
   11         16
                                   No pseudopotential on this center.
   12          8
                                   No pseudopotential on this center.
   13          8
                                   No pseudopotential on this center.
   14          8
                                   No pseudopotential on this center.
   15          8
                                   No pseudopotential on this center.
   16          8
                                   No pseudopotential on this center.
   17          8
                                   No pseudopotential on this center.
   18          6
                                   No pseudopotential on this center.
   19          6
                                   No pseudopotential on this center.
   20          6
                                   No pseudopotential on this center.
   21          9
                                   No pseudopotential on this center.
   22          9
                                   No pseudopotential on this center.
   23          9
                                   No pseudopotential on this center.
   24          9
                                   No pseudopotential on this center.
   25          9
                                   No pseudopotential on this center.
   26          9
                                   No pseudopotential on this center.
   27          9
                                   No pseudopotential on this center.
   28          9
                                   No pseudopotential on this center.
   29          9
                                   No pseudopotential on this center.
   30          6
                                   No pseudopotential on this center.
   31          6
                                   No pseudopotential on this center.
   32          6
                                   No pseudopotential on this center.
   33          6
                                   No pseudopotential on this center.
   34          6
                                   No pseudopotential on this center.
   35          6
                                   No pseudopotential on this center.
   36          6
                                   No pseudopotential on this center.
   37          1
                                   No pseudopotential on this center.
   38          1
                                   No pseudopotential on this center.
   39          1
                                   No pseudopotential on this center.
   40          7
                                   No pseudopotential on this center.
   41          7
                                   No pseudopotential on this center.
   42          7
                                   No pseudopotential on this center.
   43          7
                                   No pseudopotential on this center.
   44          6
                                   No pseudopotential on this center.
   45          1
                                   No pseudopotential on this center.
   46          1
                                   No pseudopotential on this center.
   47          6
                                   No pseudopotential on this center.
   48          6
                                   No pseudopotential on this center.
   49          6
                                   No pseudopotential on this center.
   50          6
                                   No pseudopotential on this center.
   51          1
                                   No pseudopotential on this center.
   52          6
                                   No pseudopotential on this center.
   53          1
                                   No pseudopotential on this center.
   54          6
                                   No pseudopotential on this center.
   55          1
                                   No pseudopotential on this center.
   56          1
                                   No pseudopotential on this center.
   57          1
                                   No pseudopotential on this center.
   58         71           43
                                      H and up 
                                                     2        1.0000000        0.00000000    0.00000000
                                      S - H
                                                     2       35.1620970      989.99558400    0.00000000
                                      P - H
                                                     2       19.4644020      278.86565200    0.00000000
                                      D - H
                                                     2       10.0068650       71.00917800    0.00000000
                                      F - H
                                                     2       23.5179320      -47.40589000    0.00000000
                                      G - H
                                                     2       29.4122380      -35.55714600    0.00000000
   59          8
                                   No pseudopotential on this center.
   60          6
                                   No pseudopotential on this center.
   61          1
                                   No pseudopotential on this center.
   62          1
                                   No pseudopotential on this center.
   63          1
                                   No pseudopotential on this center.
   64          6
                                   No pseudopotential on this center.
   65          1
                                   No pseudopotential on this center.
   66          1
                                   No pseudopotential on this center.
   67          1
                                   No pseudopotential on this center.
 ======================================================================================================
 Ernie: Thresh=  0.10000D-02 Tol=  0.10000D-05 Strict=F.
   888 basis functions,  1612 primitive gaussians,   961 cartesian basis functions
   222 alpha electrons      222 beta electrons
       nuclear repulsion energy     11076.2761655505 Hartrees.
 IExCor= 7252 DFT=T Ex+Corr=MN15 ExCW=0 ScaHFX=  0.440000
 ScaDFX=  1.000000  1.000000  1.000000  1.000000 ScalE2=  1.000000  1.000000
 IRadAn=      5 IRanWt=     -1 IRanGd=            0 ICorTp=0 IEmpDi=  4
 NAtoms=   67 NActive=   67 NUniq=   67 SFac= 1.00D+00 NAtFMM=   60 NAOKFM=T Big=T
 Integral buffers will be    131072 words long.
 Raffenetti 2 integral format.
 Two-electron integral symmetry is turned off.
 Force inversion solution in PCM.
 ------------------------------------------------------------------------------
 Polarizable Continuum Model (PCM)
 =================================
 Model                : PCM.
 Atomic radii         : SMD-Coulomb.
 Polarization charges : Total charges.
 Charge compensation  : None.
 Solution method      : Matrix inversion.
 Cavity type          : VdW (van der Waals Surface) (Alpha=1.000).
 Cavity algorithm     : GePol (No added spheres)
                        Default sphere list used, NSphG=   67.
                        Lebedev-Laikov grids with approx.  5.0 points / Ang**2.
                        Smoothing algorithm: York/Karplus (Gamma=1.0000).
                        Polarization charges: spherical gaussians, with
                                              point-specific exponents (IZeta= 3).
                        Self-potential: point-specific (ISelfS= 7).
                        Self-field    : sphere-specific E.n sum rule (ISelfD= 2).
 1st derivatives      : Analytical E(r).r(x)/FMM algorithm (CHGder, D1EAlg=3).
                        Cavity 1st derivative terms included.
 2nd derivatives      : Analytical E(r).r(xy)/FMM algorithm (CHGder, D2EAlg=3).
                        Cavity 2nd derivative terms included.
 Solvent              : DiChloroEthane, Eps=  10.125000 Eps(inf)=   2.087447
 ------------------------------------------------------------------------------
 GePol: Number of generator spheres                  =      67
 GePol: Total number of spheres                      =      67
 GePol: Number of exposed spheres                    =      67 (100.00%)
 GePol: Number of points                             =    4753
 GePol: Average weight of points                     =       0.13
 GePol: Minimum weight of points                     =   0.71D-11
 GePol: Maximum weight of points                     =    0.21501
 GePol: Number of points with low weight             =     284
 GePol: Fraction of low-weight points (<1% of avg)   =       5.98%
 GePol: Cavity surface area                          =    608.932 Ang**2
 GePol: Cavity volume                                =    741.970 Ang**3
 ------------------------------------------------------------------------------
 Atomic radii for non-electrostatic terms: SMD-CDS.
 ------------------------------------------------------------------------------
 PCM non-electrostatic energy =         0.0044479364 Hartrees.
 Nuclear repulsion after PCM non-electrostatic terms =    11076.2806134869 Hartrees.
 Leave Link  301 at Sat May  3 20:23:29 2025, MaxMem= 12348030976 cpu:              11.1 elap:               0.5
 (Enter /sysapps/ubuntu-applications/gaussian-new/avx/g16/l302.exe)
 NPDir=0 NMtPBC=     1 NCelOv=     1 NCel=       1 NClECP=     1 NCelD=      1
         NCelK=      1 NCelE2=     1 NClLst=     1 CellRange=     0.0.
 One-electron integrals computed using PRISM.
   1 Symmetry operations used in ECPInt.
 ECPInt:  NShTT=   73153 NPrTT=  279412 LenC2=   56919 LenP2D=  133148.
 LDataN:  DoStor=T MaxTD1= 9 Len=  602
 NBasis=   888 RedAO= T EigKep=  1.95D-04  NBF=   888
 NBsUse=   888 1.00D-06 EigRej= -1.00D+00 NBFU=   888
 Precomputing XC quadrature grid using
 IXCGrd= 4 IRadAn=           5 IRanWt=          -1 IRanGd=           0 AccXCQ= 0.00D+00.
 Defaulting to unpruned grid for atomic number  71.
 Generated NRdTot=       0 NPtTot=           0 NUsed=           0 NTot=          32
 NSgBfM=   907   907   907   907   907 MxSgAt=    67 MxSgA2=    67.
 Leave Link  302 at Sat May  3 20:23:32 2025, MaxMem= 12348030976 cpu:              68.4 elap:               2.9
 (Enter /sysapps/ubuntu-applications/gaussian-new/avx/g16/l303.exe)
 DipDrv:  MaxL=1.
 Leave Link  303 at Sat May  3 20:23:33 2025, MaxMem= 12348030976 cpu:              13.9 elap:               0.7
 (Enter /sysapps/ubuntu-applications/gaussian-new/avx/g16/l401.exe)
 ExpMin= 2.91D-02 ExpMax= 9.52D+04 ExpMxC= 1.55D+04 IAcc=3 IRadAn=         5 AccDes= 0.00D+00
 Harris functional with IExCor= 1009 and IRadAn=       5 diagonalized for initial guess.
 HarFok:  IExCor= 1009 AccDes= 0.00D+00 IRadAn=         5 IDoV= 1 UseB2=F ITyADJ=14
 ICtDFT=  3500011 ScaDFX=  1.000000  1.000000  1.000000  1.000000
 Defaulting to unpruned grid for atomic number  71.
 FoFCou: FMM=F IPFlag=           0 FMFlag=      100000 FMFlg1=        2001
         NFxFlg=           0 DoJE=T BraDBF=F KetDBF=T FulRan=T
         wScrn=  0.000000 ICntrl=       500 IOpCl=  0 I1Cent=   200000004 NGrid=           0
         NMat0=    1 NMatS0=      1 NMatT0=    0 NMatD0=    1 NMtDS0=    0 NMtDT0=    0
 Symmetry not used in FoFCou.
 Harris En= -5296.72287762614    
 JPrj=0 DoOrth=F DoCkMO=F.
 Initial guess <Sx>= 0.0000 <Sy>= 0.0000 <Sz>= 0.0000 <S**2>=-0.0000 S=-0.0000
 Leave Link  401 at Sat May  3 20:23:41 2025, MaxMem= 12348030976 cpu:             175.2 elap:               7.4
 (Enter /sysapps/ubuntu-applications/gaussian-new/avx/g16/l502.exe)
 Two-electron integral symmetry not used.
 UHF open shell SCF:
 Using DIIS extrapolation, IDIIS=  1040.
 NGot= 12348030976 LenX= 12346152878 LenY= 12345228396
 Requested convergence on RMS density matrix=1.00D-08 within 500 cycles.
 Requested convergence on MAX density matrix=1.00D-06.
 Requested convergence on             energy=1.00D-06.
 No special actions if energy rises.
 Fock matrices will be formed incrementally for  20 cycles.

 Cycle   1  Pass 1  IDiag  1:
 FoFJK:  IHMeth= 1 ICntrl=       0 DoSepK=F KAlg= 0 I1Cent=           0 FoldK=F
 IRaf= 870000000 NMat=       1 IRICut=       1 DoRegI=T DoRafI=F ISym2E= 0 IDoP0=0 IntGTp=1.
 FoFCou: FMM=T IPFlag=           0 FMFlag=      100000 FMFlg1=        2001
         NFxFlg=           0 DoJE=F BraDBF=F KetDBF=F FulRan=T
         wScrn=  0.000000 ICntrl=         0 IOpCl=  1 I1Cent=           0 NGrid=           0
         NMat0=    1 NMatS0=      1 NMatT0=    0 NMatD0=    1 NMtDS0=    0 NMtDT0=    0
 Symmetry not used in FoFCou.
 FMM levels:  10  Number of levels for PrismC:   9
 Defaulting to unpruned grid for atomic number  71.
 Defaulting to unpruned grid for atomic number  71.
 Defaulting to unpruned grid for atomic number  71.
 Defaulting to unpruned grid for atomic number  71.
 Defaulting to unpruned grid for atomic number  71.
 Defaulting to unpruned grid for atomic number  71.
 Defaulting to unpruned grid for atomic number  71.
 Defaulting to unpruned grid for atomic number  71.
 Defaulting to unpruned grid for atomic number  71.
 Defaulting to unpruned grid for atomic number  71.
 Defaulting to unpruned grid for atomic number  71.
 Defaulting to unpruned grid for atomic number  71.
 Defaulting to unpruned grid for atomic number  71.
 Defaulting to unpruned grid for atomic number  71.
 Defaulting to unpruned grid for atomic number  71.
 Defaulting to unpruned grid for atomic number  71.
 Defaulting to unpruned grid for atomic number  71.
 Defaulting to unpruned grid for atomic number  71.
 Defaulting to unpruned grid for atomic number  71.
 Defaulting to unpruned grid for atomic number  71.
 Defaulting to unpruned grid for atomic number  71.
 Defaulting to unpruned grid for atomic number  71.
 Defaulting to unpruned grid for atomic number  71.
 Defaulting to unpruned grid for atomic number  71.
 Inv3:  Mode=1 IEnd=    67773027.
 Iteration    1 A*A^-1 deviation from unit magnitude is 7.77D-15 for   4727.
 Iteration    1 A*A^-1 deviation from orthogonality  is 5.67D-15 for   4745   4552.
 Iteration    1 A^-1*A deviation from unit magnitude is 7.55D-15 for   4727.
 Iteration    1 A^-1*A deviation from orthogonality  is 2.10D-15 for   4639   3506.
 E= -5290.98357432013    
 DIIS: error= 2.21D-01 at cycle   1 NSaved=   1.
 NSaved= 1 IEnMin= 1 EnMin= -5290.98357432013     IErMin= 1 ErrMin= 2.21D-01
 ErrMax= 2.21D-01  0.00D+00 EMaxC= 1.00D-01 BMatC= 1.56D+02 BMatP= 1.56D+02
 IDIUse=3 WtCom= 0.00D+00 WtEn= 1.00D+00
 Coeff-Com:  0.100D+01
 Coeff-En:   0.100D+01
 Coeff:      0.100D+01
 Gap=     0.199 Goal=   None    Shift=    0.000
 Gap=     0.199 Goal=   None    Shift=    0.000
 GapD=    0.199 DampG=1.000 DampE=0.125 DampFc=0.1250 IDamp=-1.
 Damping current iteration by 1.25D-01
 RMSDP=1.27D-02 MaxDP=1.75D+00              OVMax= 9.84D-01

 Cycle   2  Pass 1  IDiag  1:
 RMSU=  1.59D-03    CP:  9.94D-01
 E= -5291.70663335164     Delta-E=       -0.723059031510 Rises=F Damp=T
 DIIS: error= 9.36D-02 at cycle   2 NSaved=   2.
 NSaved= 2 IEnMin= 2 EnMin= -5291.70663335164     IErMin= 2 ErrMin= 9.36D-02
 ErrMax= 9.36D-02  0.00D+00 EMaxC= 1.00D-01 BMatC= 3.24D+01 BMatP= 1.56D+02
 IDIUse=3 WtCom= 6.37D-02 WtEn= 9.36D-01
 Coeff-Com: -0.621D+00 0.162D+01
 Coeff-En:   0.373D+00 0.627D+00
 Coeff:      0.310D+00 0.690D+00
 Gap=     0.002 Goal=   None    Shift=    0.000
 Gap=     0.002 Goal=   None    Shift=    0.000
 RMSDP=3.39D-03 MaxDP=6.01D-01 DE=-7.23D-01 OVMax= 9.53D-01

 Cycle   3  Pass 1  IDiag  1:
 RMSU=  3.35D-03    CP:  9.69D-01  8.11D-01
 E= -5290.44844647754     Delta-E=        1.258186874109 Rises=F Damp=F
 DIIS: error= 2.24D-01 at cycle   3 NSaved=   3.
 NSaved= 3 IEnMin= 2 EnMin= -5291.70663335164     IErMin= 2 ErrMin= 9.36D-02
 ErrMax= 2.24D-01  0.00D+00 EMaxC= 1.00D-01 BMatC= 1.43D+02 BMatP= 3.24D+01
 IDIUse=2 WtCom= 0.00D+00 WtEn= 1.00D+00
 EnCoef did   100 forward-backward iterations
 Coeff-En:   0.501D+00 0.304D-01 0.468D+00
 Coeff:      0.501D+00 0.304D-01 0.468D+00
 Gap=     0.533 Goal=   None    Shift=    0.000
 Gap=     0.533 Goal=   None    Shift=    0.000
 RMSDP=2.57D-03 MaxDP=3.63D-01 DE= 1.26D+00 OVMax= 2.41D-01

 Cycle   4  Pass 1  IDiag  1:
 RMSU=  1.56D-03    CP:  9.74D-01  4.81D-01  4.10D-01
 E= -5295.49197661172     Delta-E=       -5.043530134180 Rises=F Damp=F
 DIIS: error= 5.25D-02 at cycle   4 NSaved=   4.
 NSaved= 4 IEnMin= 4 EnMin= -5295.49197661172     IErMin= 4 ErrMin= 5.25D-02
 ErrMax= 5.25D-02  0.00D+00 EMaxC= 1.00D-01 BMatC= 8.89D+00 BMatP= 3.24D+01
 IDIUse=3 WtCom= 4.75D-01 WtEn= 5.25D-01
 Coeff-Com:  0.365D+00-0.138D+00 0.197D+00 0.576D+00
 Coeff-En:   0.208D-01 0.000D+00 0.000D+00 0.979D+00
 Coeff:      0.184D+00-0.656D-01 0.935D-01 0.788D+00
 Gap=     0.824 Goal=   None    Shift=    0.000
 Gap=     0.824 Goal=   None    Shift=    0.000
 RMSDP=1.37D-03 MaxDP=1.41D-01 DE=-5.04D+00 OVMax= 1.21D-01

 Cycle   5  Pass 1  IDiag  1:
 RMSU=  6.45D-04    CP:  9.84D-01  4.29D-01  5.14D-01  2.63D-01
 E= -5295.52119635991     Delta-E=       -0.029219748190 Rises=F Damp=F
 DIIS: error= 5.86D-02 at cycle   5 NSaved=   5.
 NSaved= 5 IEnMin= 5 EnMin= -5295.52119635991     IErMin= 4 ErrMin= 5.25D-02
 ErrMax= 5.86D-02  0.00D+00 EMaxC= 1.00D-01 BMatC= 1.07D+01 BMatP= 8.89D+00
 IDIUse=2 WtCom= 0.00D+00 WtEn= 1.00D+00
 Coeff-En:   0.000D+00 0.000D+00 0.000D+00 0.488D+00 0.512D+00
 Coeff:      0.000D+00 0.000D+00 0.000D+00 0.488D+00 0.512D+00
 Gap=     0.191 Goal=   None    Shift=    0.000
 Gap=     0.191 Goal=   None    Shift=    0.000
 RMSDP=6.31D-04 MaxDP=8.30D-02 DE=-2.92D-02 OVMax= 5.67D-02

 Cycle   6  Pass 1  IDiag  1:
 RMSU=  3.67D-04    CP:  9.79D-01  4.08D-01  4.71D-01  4.73D-01  4.46D-01
 E= -5295.96219332397     Delta-E=       -0.440996964060 Rises=F Damp=F
 DIIS: error= 6.23D-03 at cycle   6 NSaved=   6.
 NSaved= 6 IEnMin= 6 EnMin= -5295.96219332397     IErMin= 6 ErrMin= 6.23D-03
 ErrMax= 6.23D-03  0.00D+00 EMaxC= 1.00D-01 BMatC= 1.98D-01 BMatP= 8.89D+00
 IDIUse=3 WtCom= 9.38D-01 WtEn= 6.23D-02
 Coeff-Com: -0.531D-01 0.594D-01-0.535D-02 0.114D+00 0.254D+00 0.631D+00
 Coeff-En:   0.000D+00 0.000D+00 0.000D+00 0.000D+00 0.000D+00 0.100D+01
 Coeff:     -0.498D-01 0.557D-01-0.502D-02 0.107D+00 0.239D+00 0.654D+00
 Gap=     0.189 Goal=   None    Shift=    0.000
 Gap=     0.189 Goal=   None    Shift=    0.000
 RMSDP=2.02D-04 MaxDP=1.84D-02 DE=-4.41D-01 OVMax= 1.94D-02

 Cycle   7  Pass 1  IDiag  1:
 RMSU=  1.10D-04    CP:  9.79D-01  4.34D-01  4.79D-01  4.96D-01  5.29D-01
                    CP:  5.97D-01
 E= -5295.97816131076     Delta-E=       -0.015967986796 Rises=F Damp=F
 DIIS: error= 7.00D-03 at cycle   7 NSaved=   7.
 NSaved= 7 IEnMin= 7 EnMin= -5295.97816131076     IErMin= 6 ErrMin= 6.23D-03
 ErrMax= 7.00D-03  0.00D+00 EMaxC= 1.00D-01 BMatC= 1.40D-01 BMatP= 1.98D-01
 IDIUse=3 WtCom= 9.38D-01 WtEn= 6.23D-02
 Coeff-Com: -0.448D-01 0.614D-01 0.150D-02 0.509D-01 0.112D+00 0.364D+00
 Coeff-Com:  0.455D+00
 Coeff-En:   0.000D+00 0.000D+00 0.000D+00 0.000D+00 0.000D+00 0.165D+00
 Coeff-En:   0.835D+00
 Coeff:     -0.420D-01 0.576D-01 0.141D-02 0.477D-01 0.105D+00 0.352D+00
 Coeff:      0.478D+00
 Gap=     0.188 Goal=   None    Shift=    0.000
 Gap=     0.188 Goal=   None    Shift=    0.000
 RMSDP=7.71D-05 MaxDP=7.28D-03 DE=-1.60D-02 OVMax= 1.03D-02

 Cycle   8  Pass 1  IDiag  1:
 RMSU=  4.38D-05    CP:  9.79D-01  4.23D-01  4.76D-01  4.86D-01  5.39D-01
                    CP:  6.75D-01  5.53D-01
 E= -5295.98112604868     Delta-E=       -0.002964737918 Rises=F Damp=F
 DIIS: error= 5.15D-03 at cycle   8 NSaved=   8.
 NSaved= 8 IEnMin= 8 EnMin= -5295.98112604868     IErMin= 8 ErrMin= 5.15D-03
 ErrMax= 5.15D-03  0.00D+00 EMaxC= 1.00D-01 BMatC= 7.18D-02 BMatP= 1.40D-01
 IDIUse=3 WtCom= 9.49D-01 WtEn= 5.15D-02
 Coeff-Com: -0.346D-01 0.545D-01 0.524D-02 0.324D-01 0.424D-01 0.145D+00
 Coeff-Com:  0.276D+00 0.479D+00
 Coeff-En:   0.000D+00 0.000D+00 0.000D+00 0.000D+00 0.000D+00 0.000D+00
 Coeff-En:   0.000D+00 0.100D+01
 Coeff:     -0.328D-01 0.517D-01 0.497D-02 0.307D-01 0.403D-01 0.138D+00
 Coeff:      0.262D+00 0.506D+00
 Gap=     0.188 Goal=   None    Shift=    0.000
 Gap=     0.188 Goal=   None    Shift=    0.000
 RMSDP=3.14D-05 MaxDP=2.93D-03 DE=-2.96D-03 OVMax= 5.21D-03

 Cycle   9  Pass 1  IDiag  1:
 RMSU=  1.45D-05    CP:  9.79D-01  4.26D-01  4.76D-01  4.93D-01  5.36D-01
                    CP:  6.67D-01  6.64D-01  5.07D-01
 E= -5295.98257548976     Delta-E=       -0.001449441084 Rises=F Damp=F
 DIIS: error= 4.49D-03 at cycle   9 NSaved=   9.
 NSaved= 9 IEnMin= 9 EnMin= -5295.98257548976     IErMin= 9 ErrMin= 4.49D-03
 ErrMax= 4.49D-03  0.00D+00 EMaxC= 1.00D-01 BMatC= 5.28D-02 BMatP= 7.18D-02
 IDIUse=3 WtCom= 9.55D-01 WtEn= 4.49D-02
 Coeff-Com: -0.165D-01 0.299D-01 0.468D-02 0.271D-01-0.979D-02-0.118D+00
 Coeff-Com: -0.374D+00-0.862D-01 0.154D+01
 Coeff-En:   0.000D+00 0.000D+00 0.000D+00 0.000D+00 0.000D+00 0.000D+00
 Coeff-En:   0.000D+00 0.000D+00 0.100D+01
 Coeff:     -0.157D-01 0.285D-01 0.447D-02 0.259D-01-0.935D-02-0.113D+00
 Coeff:     -0.357D+00-0.824D-01 0.152D+01
 Gap=     0.189 Goal=   None    Shift=    0.000
 Gap=     0.189 Goal=   None    Shift=    0.000
 RMSDP=3.00D-05 MaxDP=6.84D-03 DE=-1.45D-03 OVMax= 3.80D-03

 Cycle  10  Pass 1  IDiag  1:
 RMSU=  1.93D-05    CP:  9.79D-01  4.29D-01  4.76D-01  5.06D-01  5.33D-01
                    CP:  6.59D-01  6.50D-01  6.18D-01  1.31D+00
 E= -5295.98471520501     Delta-E=       -0.002139715247 Rises=F Damp=F
 DIIS: error= 2.24D-03 at cycle  10 NSaved=  10.
 NSaved=10 IEnMin=10 EnMin= -5295.98471520501     IErMin=10 ErrMin= 2.24D-03
 ErrMax= 2.24D-03  0.00D+00 EMaxC= 1.00D-01 BMatC= 1.32D-02 BMatP= 5.28D-02
 IDIUse=3 WtCom= 9.78D-01 WtEn= 2.24D-02
 Coeff-Com:  0.174D-02 0.607D-03 0.100D-02 0.118D-01-0.259D-01-0.188D+00
 Coeff-Com: -0.555D+00-0.531D+00 0.120D+01 0.109D+01
 Coeff-En:   0.000D+00 0.000D+00 0.000D+00 0.000D+00 0.000D+00 0.000D+00
 Coeff-En:   0.000D+00 0.000D+00 0.000D+00 0.100D+01
 Coeff:      0.170D-02 0.594D-03 0.982D-03 0.115D-01-0.253D-01-0.184D+00
 Coeff:     -0.543D+00-0.520D+00 0.117D+01 0.109D+01
 Gap=     0.189 Goal=   None    Shift=    0.000
 Gap=     0.189 Goal=   None    Shift=    0.000
 RMSDP=3.37D-05 MaxDP=7.38D-03 DE=-2.14D-03 OVMax= 4.98D-03

 Cycle  11  Pass 1  IDiag  1:
 RMSU=  1.26D-05    CP:  9.79D-01  4.31D-01  4.73D-01  5.21D-01  5.38D-01
                    CP:  6.44D-01  6.11D-01  6.96D-01  2.43D+00  1.22D+00
 E= -5295.98550949450     Delta-E=       -0.000794289492 Rises=F Damp=F
 DIIS: error= 1.55D-04 at cycle  11 NSaved=  11.
 NSaved=11 IEnMin=11 EnMin= -5295.98550949450     IErMin=11 ErrMin= 1.55D-04
 ErrMax= 1.55D-04  0.00D+00 EMaxC= 1.00D-01 BMatC= 1.39D-04 BMatP= 1.32D-02
 IDIUse=3 WtCom= 9.98D-01 WtEn= 1.55D-03
 Coeff-Com:  0.121D-02-0.855D-03-0.134D-03 0.420D-02-0.775D-02-0.630D-01
 Coeff-Com: -0.196D+00-0.217D+00 0.348D+00 0.545D+00 0.587D+00
 Coeff-En:   0.000D+00 0.000D+00 0.000D+00 0.000D+00 0.000D+00 0.000D+00
 Coeff-En:   0.000D+00 0.000D+00 0.000D+00 0.000D+00 0.100D+01
 Coeff:      0.121D-02-0.854D-03-0.134D-03 0.419D-02-0.774D-02-0.629D-01
 Coeff:     -0.195D+00-0.216D+00 0.347D+00 0.544D+00 0.587D+00
 Gap=     0.189 Goal=   None    Shift=    0.000
 Gap=     0.189 Goal=   None    Shift=    0.000
 RMSDP=6.67D-06 MaxDP=7.35D-04 DE=-7.94D-04 OVMax= 1.60D-03

 Cycle  12  Pass 1  IDiag  1:
 RMSU=  4.83D-06    CP:  9.79D-01  4.31D-01  4.73D-01  5.23D-01  5.38D-01
                    CP:  6.42D-01  6.15D-01  6.77D-01  2.48D+00  1.27D+00
                    CP:  7.34D-01
 E= -5295.98552396423     Delta-E=       -0.000014469726 Rises=F Damp=F
 DIIS: error= 9.83D-05 at cycle  12 NSaved=  12.
 NSaved=12 IEnMin=12 EnMin= -5295.98552396423     IErMin=12 ErrMin= 9.83D-05
 ErrMax= 9.83D-05  0.00D+00 EMaxC= 1.00D-01 BMatC= 3.97D-05 BMatP= 1.39D-04
 IDIUse=1 WtCom= 1.00D+00 WtEn= 0.00D+00
 Coeff-Com:  0.134D-03-0.102D-03-0.207D-03 0.919D-03-0.216D-03-0.640D-02
 Coeff-Com: -0.247D-01-0.329D-01 0.268D-01 0.136D+00 0.319D+00 0.582D+00
 Coeff:      0.134D-03-0.102D-03-0.207D-03 0.919D-03-0.216D-03-0.640D-02
 Coeff:     -0.247D-01-0.329D-01 0.268D-01 0.136D+00 0.319D+00 0.582D+00
 Gap=     0.189 Goal=   None    Shift=    0.000
 Gap=     0.189 Goal=   None    Shift=    0.000
 RMSDP=2.71D-06 MaxDP=2.34D-04 DE=-1.45D-05 OVMax= 2.21D-04

 Cycle  13  Pass 1  IDiag  1:
 RMSU=  1.60D-06    CP:  9.79D-01  4.31D-01  4.73D-01  5.22D-01  5.38D-01
                    CP:  6.44D-01  6.13D-01  6.71D-01  2.42D+00  1.28D+00
                    CP:  8.14D-01  8.23D-01
 E= -5295.98552760406     Delta-E=       -0.000003639831 Rises=F Damp=F
 DIIS: error= 1.17D-05 at cycle  13 NSaved=  13.
 NSaved=13 IEnMin=13 EnMin= -5295.98552760406     IErMin=13 ErrMin= 1.17D-05
 ErrMax= 1.17D-05  0.00D+00 EMaxC= 1.00D-01 BMatC= 1.21D-06 BMatP= 3.97D-05
 IDIUse=1 WtCom= 1.00D+00 WtEn= 0.00D+00
 Coeff-Com: -0.817D-04 0.754D-04-0.731D-04-0.568D-04 0.800D-03 0.442D-02
 Coeff-Com:  0.114D-01 0.124D-01-0.285D-01-0.159D-02 0.881D-01 0.241D+00
 Coeff-Com:  0.672D+00
 Coeff:     -0.817D-04 0.754D-04-0.731D-04-0.568D-04 0.800D-03 0.442D-02
 Coeff:      0.114D-01 0.124D-01-0.285D-01-0.159D-02 0.881D-01 0.241D+00
 Coeff:      0.672D+00
 Gap=     0.189 Goal=   None    Shift=    0.000
 Gap=     0.189 Goal=   None    Shift=    0.000
 RMSDP=8.61D-07 MaxDP=7.25D-05 DE=-3.64D-06 OVMax= 1.99D-04

 Cycle  14  Pass 1  IDiag  1:
 RMSU=  6.54D-07    CP:  9.79D-01  4.31D-01  4.73D-01  5.22D-01  5.39D-01
                    CP:  6.44D-01  6.12D-01  6.72D-01  2.40D+00  1.29D+00
                    CP:  8.37D-01  8.81D-01  1.01D+00
 E= -5295.98552780684     Delta-E=       -0.000000202775 Rises=F Damp=F
 DIIS: error= 7.53D-06 at cycle  14 NSaved=  14.
 NSaved=14 IEnMin=14 EnMin= -5295.98552780684     IErMin=14 ErrMin= 7.53D-06
 ErrMax= 7.53D-06  0.00D+00 EMaxC= 1.00D-01 BMatC= 2.96D-07 BMatP= 1.21D-06
 IDIUse=1 WtCom= 1.00D+00 WtEn= 0.00D+00
 Coeff-Com: -0.496D-04 0.468D-04-0.606D-06-0.128D-03 0.353D-03 0.252D-02
 Coeff-Com:  0.711D-02 0.934D-02-0.158D-01-0.165D-01 0.426D-02 0.147D-01
 Coeff-Com:  0.295D+00 0.699D+00
 Coeff:     -0.496D-04 0.468D-04-0.606D-06-0.128D-03 0.353D-03 0.252D-02
 Coeff:      0.711D-02 0.934D-02-0.158D-01-0.165D-01 0.426D-02 0.147D-01
 Coeff:      0.295D+00 0.699D+00
 Gap=     0.189 Goal=   None    Shift=    0.000
 Gap=     0.189 Goal=   None    Shift=    0.000
 RMSDP=4.69D-07 MaxDP=3.63D-05 DE=-2.03D-07 OVMax= 1.59D-04

 Cycle  15  Pass 1  IDiag  1:
 RMSU=  2.69D-07    CP:  9.79D-01  4.31D-01  4.73D-01  5.22D-01  5.39D-01
                    CP:  6.45D-01  6.12D-01  6.72D-01  2.41D+00  1.29D+00
                    CP:  8.52D-01  9.14D-01  1.17D+00  1.05D+00
 E= -5295.98552785327     Delta-E=       -0.000000046439 Rises=F Damp=F
 DIIS: error= 4.62D-06 at cycle  15 NSaved=  15.
 NSaved=15 IEnMin=15 EnMin= -5295.98552785327     IErMin=15 ErrMin= 4.62D-06
 ErrMax= 4.62D-06  0.00D+00 EMaxC= 1.00D-01 BMatC= 9.05D-08 BMatP= 2.96D-07
 IDIUse=1 WtCom= 1.00D+00 WtEn= 0.00D+00
 Coeff-Com: -0.841D-05 0.584D-05 0.135D-04-0.629D-04 0.302D-04 0.474D-03
 Coeff-Com:  0.132D-02 0.255D-02-0.330D-02-0.844D-02-0.126D-01-0.444D-01
 Coeff-Com:  0.231D-01 0.356D+00 0.686D+00
 Coeff:     -0.841D-05 0.584D-05 0.135D-04-0.629D-04 0.302D-04 0.474D-03
 Coeff:      0.132D-02 0.255D-02-0.330D-02-0.844D-02-0.126D-01-0.444D-01
 Coeff:      0.231D-01 0.356D+00 0.686D+00
 Gap=     0.189 Goal=   None    Shift=    0.000
 Gap=     0.189 Goal=   None    Shift=    0.000
 RMSDP=2.42D-07 MaxDP=1.62D-05 DE=-4.64D-08 OVMax= 7.50D-05

 Cycle  16  Pass 1  IDiag  1:
 RMSU=  9.80D-08    CP:  9.79D-01  4.31D-01  4.73D-01  5.22D-01  5.39D-01
                    CP:  6.45D-01  6.12D-01  6.72D-01  2.41D+00  1.30D+00
                    CP:  8.58D-01  9.27D-01  1.25D+00  1.22D+00  9.42D-01
 E= -5295.98552786658     Delta-E=       -0.000000013302 Rises=F Damp=F
 DIIS: error= 6.70D-07 at cycle  16 NSaved=  16.
 NSaved=16 IEnMin=16 EnMin= -5295.98552786658     IErMin=16 ErrMin= 6.70D-07
 ErrMax= 6.70D-07  0.00D+00 EMaxC= 1.00D-01 BMatC= 5.39D-09 BMatP= 9.05D-08
 IDIUse=1 WtCom= 1.00D+00 WtEn= 0.00D+00
 Coeff-Com:  0.619D-05-0.719D-05 0.635D-05-0.788D-05-0.518D-04-0.230D-03
 Coeff-Com: -0.710D-03-0.376D-03 0.113D-02-0.107D-02-0.594D-02-0.255D-01
 Coeff-Com: -0.407D-01 0.529D-01 0.316D+00 0.705D+00
 Coeff:      0.619D-05-0.719D-05 0.635D-05-0.788D-05-0.518D-04-0.230D-03
 Coeff:     -0.710D-03-0.376D-03 0.113D-02-0.107D-02-0.594D-02-0.255D-01
 Coeff:     -0.407D-01 0.529D-01 0.316D+00 0.705D+00
 Gap=     0.189 Goal=   None    Shift=    0.000
 Gap=     0.189 Goal=   None    Shift=    0.000
 RMSDP=1.08D-07 MaxDP=8.84D-06 DE=-1.33D-08 OVMax= 4.11D-05

 Cycle  17  Pass 1  IDiag  1:
 RMSU=  4.00D-08    CP:  9.79D-01  4.31D-01  4.73D-01  5.22D-01  5.39D-01
                    CP:  6.45D-01  6.12D-01  6.72D-01  2.41D+00  1.30D+00
                    CP:  8.61D-01  9.32D-01  1.28D+00  1.30D+00  1.10D+00
                    CP:  9.47D-01
 E= -5295.98552786832     Delta-E=       -0.000000001748 Rises=F Damp=F
 DIIS: error= 7.20D-07 at cycle  17 NSaved=  17.
 NSaved=17 IEnMin=17 EnMin= -5295.98552786832     IErMin=16 ErrMin= 6.70D-07
 ErrMax= 7.20D-07  0.00D+00 EMaxC= 1.00D-01 BMatC= 2.08D-09 BMatP= 5.39D-09
 IDIUse=1 WtCom= 1.00D+00 WtEn= 0.00D+00
 Coeff-Com:  0.448D-05-0.500D-05-0.206D-06 0.575D-05-0.251D-04-0.161D-03
 Coeff-Com: -0.495D-03-0.488D-03 0.946D-03 0.942D-03-0.125D-03-0.373D-02
 Coeff-Com: -0.193D-01-0.283D-01 0.609D-02 0.308D+00 0.736D+00
 Coeff:      0.448D-05-0.500D-05-0.206D-06 0.575D-05-0.251D-04-0.161D-03
 Coeff:     -0.495D-03-0.488D-03 0.946D-03 0.942D-03-0.125D-03-0.373D-02
 Coeff:     -0.193D-01-0.283D-01 0.609D-02 0.308D+00 0.736D+00
 Gap=     0.189 Goal=   None    Shift=    0.000
 Gap=     0.189 Goal=   None    Shift=    0.000
 RMSDP=3.97D-08 MaxDP=3.02D-06 DE=-1.75D-09 OVMax= 1.41D-05

 Cycle  18  Pass 1  IDiag  1:
 RMSU=  1.59D-08    CP:  9.79D-01  4.31D-01  4.73D-01  5.22D-01  5.39D-01
                    CP:  6.45D-01  6.12D-01  6.73D-01  2.41D+00  1.30D+00
                    CP:  8.62D-01  9.34D-01  1.29D+00  1.33D+00  1.15D+00
                    CP:  1.10D+00  1.01D+00
 E= -5295.98552786892     Delta-E=       -0.000000000598 Rises=F Damp=F
 DIIS: error= 5.15D-07 at cycle  18 NSaved=  18.
 NSaved=18 IEnMin=18 EnMin= -5295.98552786892     IErMin=18 ErrMin= 5.15D-07
 ErrMax= 5.15D-07  0.00D+00 EMaxC= 1.00D-01 BMatC= 8.39D-10 BMatP= 2.08D-09
 IDIUse=1 WtCom= 1.00D+00 WtEn= 0.00D+00
 Coeff-Com:  0.162D-05-0.169D-05-0.104D-05 0.398D-05-0.712D-05-0.599D-04
 Coeff-Com: -0.180D-03-0.204D-03 0.408D-03 0.691D-03 0.708D-03 0.125D-02
 Coeff-Com: -0.509D-02-0.212D-01-0.466D-01 0.653D-01 0.363D+00 0.642D+00
 Coeff:      0.162D-05-0.169D-05-0.104D-05 0.398D-05-0.712D-05-0.599D-04
 Coeff:     -0.180D-03-0.204D-03 0.408D-03 0.691D-03 0.708D-03 0.125D-02
 Coeff:     -0.509D-02-0.212D-01-0.466D-01 0.653D-01 0.363D+00 0.642D+00
 Gap=     0.189 Goal=   None    Shift=    0.000
 Gap=     0.189 Goal=   None    Shift=    0.000
 RMSDP=1.42D-08 MaxDP=8.78D-07 DE=-5.98D-10 OVMax= 4.19D-06

 Cycle  19  Pass 1  IDiag  1:
 RMSU=  5.77D-09    CP:  9.79D-01  4.31D-01  4.73D-01  5.22D-01  5.39D-01
                    CP:  6.45D-01  6.12D-01  6.73D-01  2.41D+00  1.30D+00
                    CP:  8.62D-01  9.35D-01  1.30D+00  1.34D+00  1.16D+00
                    CP:  1.15D+00  1.12D+00  8.68D-01
 E= -5295.98552786877     Delta-E=        0.000000000151 Rises=F Damp=F
 DIIS: error= 1.83D-07 at cycle  19 NSaved=  19.
 NSaved=19 IEnMin=18 EnMin= -5295.98552786892     IErMin=19 ErrMin= 1.83D-07
 ErrMax= 1.83D-07  0.00D+00 EMaxC= 1.00D-01 BMatC= 1.01D-10 BMatP= 8.39D-10
 IDIUse=1 WtCom= 1.00D+00 WtEn= 0.00D+00
 Coeff-Com:  0.861D-07-0.266D-07-0.456D-06 0.835D-06 0.505D-06-0.328D-05
 Coeff-Com: -0.759D-05-0.114D-04 0.506D-04 0.178D-03 0.351D-03 0.105D-02
 Coeff-Com:  0.927D-03-0.343D-02-0.227D-01-0.178D-01 0.328D-01 0.274D+00
 Coeff-Com:  0.734D+00
 Coeff:      0.861D-07-0.266D-07-0.456D-06 0.835D-06 0.505D-06-0.328D-05
 Coeff:     -0.759D-05-0.114D-04 0.506D-04 0.178D-03 0.351D-03 0.105D-02
 Coeff:      0.927D-03-0.343D-02-0.227D-01-0.178D-01 0.328D-01 0.274D+00
 Coeff:      0.734D+00
 Gap=     0.189 Goal=   None    Shift=    0.000
 Gap=     0.189 Goal=   None    Shift=    0.000
 RMSDP=5.04D-09 MaxDP=4.96D-07 DE= 1.51D-10 OVMax= 1.35D-06

 Error on total polarization charges =  0.03165
 SCF Done:  E(UMN15) =  -5295.98552787     A.U. after   19 cycles
            NFock= 19  Conv=0.50D-08     -V/T= 2.0935
 <Sx>= 0.0000 <Sy>= 0.0000 <Sz>= 0.0000 <S**2>=-0.0000 S=-0.0000
 <L.S>=  0.00000000000    
 KE= 4.843210809193D+03 PE=-3.477775635198D+04 EE= 1.356227940143D+04
 SMD-CDS (non-electrostatic) energy       (kcal/mol) =       2.79
 (included in total energy above)
 Annihilation of the first spin contaminant:
 S**2 before annihilation    -0.0000,   after    -0.0000
 Leave Link  502 at Sat May  3 20:45:00 2025, MaxMem= 12348030976 cpu:           30087.8 elap:            1279.0
 (Enter /sysapps/ubuntu-applications/gaussian-new/avx/g16/l801.exe)
 DoSCS=F DFT=T ScalE2(SS,OS)=  1.000000  1.000000
 Range of M.O.s used for correlation:     1   888
 NBasis=   888 NAE=   222 NBE=   222 NFC=     0 NFV=     0
 NROrb=    888 NOA=   222 NOB=   222 NVA=   666 NVB=   666

 **** Warning!!: The largest alpha MO coefficient is  0.12567642D+02


 **** Warning!!: The largest beta MO coefficient is  0.12567642D+02

 Leave Link  801 at Sat May  3 20:45:00 2025, MaxMem= 12348030976 cpu:               5.3 elap:               0.3
 (Enter /sysapps/ubuntu-applications/gaussian-new/avx/g16/l1101.exe)
 Using compressed storage, NAtomX=    67.
 Will process     68 centers per pass.
   1 Symmetry operations used in ECPInt.
 ECPInt:  NShTT=   73153 NPrTT=  279412 LenC2=   56919 LenP2D=  133148.
 LDataN:  DoStor=T MaxTD1=10 Len=  848
 Number of processors reduced to  11 by ecpmxn.
 Leave Link 1101 at Sat May  3 20:45:22 2025, MaxMem= 12348030976 cpu:             335.1 elap:              21.5
 (Enter /sysapps/ubuntu-applications/gaussian-new/avx/g16/l1102.exe)
 Symmetrizing basis deriv contribution to polar:
 IMax=3 JMax=2 DiffMx= 0.00D+00
 Leave Link 1102 at Sat May  3 20:45:24 2025, MaxMem= 12348030976 cpu:               7.9 elap:               0.6
 (Enter /sysapps/ubuntu-applications/gaussian-new/avx/g16/l1110.exe)
 Forming Gx(P) for the SCF density, NAtomX=    67.
 Integral derivatives from FoFJK, PRISM(SPDF).
 Do as many integral derivatives as possible in FoFJK.
 G2DrvN: MDV=   12348025078.
 G2DrvN: will do    68 centers at a time, making    1 passes.
 Calling FoFCou, ICntrl=  3107 FMM=T I1Cent=   0 AccDes= 0.00D+00.
 FoFJK:  IHMeth= 1 ICntrl=    3107 DoSepK=F KAlg= 0 I1Cent=           0 FoldK=F
 IRaf=         0 NMat=       1 IRICut=       1 DoRegI=T DoRafI=F ISym2E= 0 IDoP0=0 IntGTp=1.
 FoFCou: FMM=T IPFlag=           0 FMFlag=      100000 FMFlg1=        2001
         NFxFlg=           0 DoJE=F BraDBF=F KetDBF=F FulRan=T
         wScrn=  0.000000 ICntrl=      3107 IOpCl=  1 I1Cent=           0 NGrid=           0
         NMat0=    1 NMatS0=      1 NMatT0=    0 NMatD0=    1 NMtDS0=    0 NMtDT0=    0
 Symmetry not used in FoFCou.
 FMM levels:  10  Number of levels for PrismC:   9
 Defaulting to unpruned grid for atomic number  71.
 Defaulting to unpruned grid for atomic number  71.
 Defaulting to unpruned grid for atomic number  71.
 Defaulting to unpruned grid for atomic number  71.
 Defaulting to unpruned grid for atomic number  71.
 Defaulting to unpruned grid for atomic number  71.
 Defaulting to unpruned grid for atomic number  71.
 Defaulting to unpruned grid for atomic number  71.
 Defaulting to unpruned grid for atomic number  71.
 Defaulting to unpruned grid for atomic number  71.
 Defaulting to unpruned grid for atomic number  71.
 Defaulting to unpruned grid for atomic number  71.
 Defaulting to unpruned grid for atomic number  71.
 Defaulting to unpruned grid for atomic number  71.
 Defaulting to unpruned grid for atomic number  71.
 Defaulting to unpruned grid for atomic number  71.
 Defaulting to unpruned grid for atomic number  71.
 Defaulting to unpruned grid for atomic number  71.
 Defaulting to unpruned grid for atomic number  71.
 Defaulting to unpruned grid for atomic number  71.
 Defaulting to unpruned grid for atomic number  71.
 Defaulting to unpruned grid for atomic number  71.
 Defaulting to unpruned grid for atomic number  71.
 Defaulting to unpruned grid for atomic number  71.
 NEqPCM:  Using equilibrium solvation (IEInf=0, Eps=  10.1250, EpsInf=   2.0874)
 G2PCM: DoFxE=T DoFxN=T DoGrad=T DoDP/DQ/DG/TGxP=FFFF NFrqRd=   0 IEInf=0 SqF1=F DoCFld=F IF1Alg=4.
 GePol: Maximum number of non-zero 1st derivatives   =     261
 End of G2Drv F.D. properties file   721 does not exist.
 End of G2Drv F.D. properties file   722 does not exist.
 End of G2Drv F.D. properties file   788 does not exist.
 Leave Link 1110 at Sat May  3 21:49:55 2025, MaxMem= 12348030976 cpu:           91727.2 elap:            3871.6
 (Enter /sysapps/ubuntu-applications/gaussian-new/avx/g16/l1002.exe)
 Minotr:  UHF open shell wavefunction.
          IDoAtm=11111111111111111111111111111111111111111111111111
          IDoAtm=11111111111111111
 NEqPCM:  Using equilibrium solvation (IEInf=0, Eps=  10.1250, EpsInf=   2.0874)
          Direct CPHF calculation.
          Differentiating once with respect to nuclear coordinates.
          Requested convergence is 1.0D-08 RMS, and 1.0D-07 maximum.
          Secondary convergence is 1.0D-12 RMS, and 1.0D-12 maximum.
          NewPWx=T KeepS1=F KeepF1=F KeepIn=T MapXYZ=F SortEE=F KeepMc=T.
 Defaulting to unpruned grid for atomic number  71.
        20730 words used for storage of precomputed grid.
 Two-electron integral symmetry not used.
          MDV=   12348030976 using IRadAn=       1.
          Solving linear equations simultaneously, MaxMat=      72.
 FoF2E skips out because all densities are zero.
 CalDSu exits because no D1Ps are significant.
 FoFJK:  IHMeth= 1 ICntrl=       0 DoSepK=F KAlg= 0 I1Cent=           0 FoldK=F
 IRaf= 820000000 NMat=      72 IRICut=       1 DoRegI=T DoRafI=F ISym2E= 0 IDoP0=3 IntGTp=3.
 Defaulting to unpruned grid for atomic number  71.
 Defaulting to unpruned grid for atomic number  71.
 Defaulting to unpruned grid for atomic number  71.
 Defaulting to unpruned grid for atomic number  71.
 Defaulting to unpruned grid for atomic number  71.
 Defaulting to unpruned grid for atomic number  71.
 Defaulting to unpruned grid for atomic number  71.
 Defaulting to unpruned grid for atomic number  71.
 Defaulting to unpruned grid for atomic number  71.
 Defaulting to unpruned grid for atomic number  71.
 Defaulting to unpruned grid for atomic number  71.
 Defaulting to unpruned grid for atomic number  71.
 Defaulting to unpruned grid for atomic number  71.
 Defaulting to unpruned grid for atomic number  71.
 Defaulting to unpruned grid for atomic number  71.
 Defaulting to unpruned grid for atomic number  71.
 Defaulting to unpruned grid for atomic number  71.
 Defaulting to unpruned grid for atomic number  71.
 Defaulting to unpruned grid for atomic number  71.
 Defaulting to unpruned grid for atomic number  71.
 Defaulting to unpruned grid for atomic number  71.
 Defaulting to unpruned grid for atomic number  71.
 Defaulting to unpruned grid for atomic number  71.
 Defaulting to unpruned grid for atomic number  71.
          There are   204 degrees of freedom in the 1st order CPHF.  IDoFFX=6 NUNeed=     0.
    201 vectors produced by pass  0 Test12= 2.96D-13 1.00D-09 XBig12= 3.61D-01 1.56D-01.
 AX will form    72 AO Fock derivatives at one time.
    198 vectors produced by pass  1 Test12= 2.96D-13 1.00D-09 XBig12= 8.84D-02 3.62D-02.
    198 vectors produced by pass  2 Test12= 2.96D-13 1.00D-09 XBig12= 2.66D-03 3.30D-03.
    198 vectors produced by pass  3 Test12= 2.96D-13 1.00D-09 XBig12= 4.15D-05 4.89D-04.
    198 vectors produced by pass  4 Test12= 2.96D-13 1.00D-09 XBig12= 4.86D-07 4.00D-05.
    198 vectors produced by pass  5 Test12= 2.96D-13 1.00D-09 XBig12= 3.26D-09 2.84D-06.
    166 vectors produced by pass  6 Test12= 2.96D-13 1.00D-09 XBig12= 1.93D-11 2.55D-07.
     65 vectors produced by pass  7 Test12= 2.96D-13 1.00D-09 XBig12= 8.13D-14 1.50D-08.
      3 vectors produced by pass  8 Test12= 2.96D-13 1.00D-09 XBig12= 2.07D-15 1.45D-09.
      2 vectors produced by pass  9 Test12= 2.96D-13 1.00D-09 XBig12= 2.03D-15 1.25D-09.
 InvSVY:  IOpt=1 It=  1 EMax= 9.99D-16
 Solved reduced A of dimension  1427 with   204 vectors.
 End of Minotr F.D. properties file   721 does not exist.
 End of Minotr F.D. properties file   722 does not exist.
 End of Minotr F.D. properties file   788 does not exist.
 Leave Link 1002 at Sun May  4 01:33:03 2025, MaxMem= 12348030976 cpu:          316820.5 elap:           13384.1
 (Enter /sysapps/ubuntu-applications/gaussian-new/avx/g16/l601.exe)
 Copying SCF densities to generalized density rwf, IOpCl= 1 IROHF=0.

 **********************************************************************

            Population analysis using the SCF density.

 **********************************************************************

 Alpha  occ. eigenvalues --  -88.06211 -88.05885 -88.05854 -24.34272 -24.34225
 Alpha  occ. eigenvalues --  -24.34116 -24.34071 -24.34067 -24.33969 -24.33778
 Alpha  occ. eigenvalues --  -24.33709 -24.33691 -18.87334 -18.85133 -18.85066
 Alpha  occ. eigenvalues --  -18.84827 -18.84620 -18.84512 -18.84265 -18.84127
 Alpha  occ. eigenvalues --  -18.84125 -18.83718 -18.83353 -18.83114 -17.82148
 Alpha  occ. eigenvalues --  -14.24517 -14.18904 -14.15431 -14.14754 -11.57011
 Alpha  occ. eigenvalues --  -11.56991 -11.56955 -10.33547 -10.33426 -10.33415
 Alpha  occ. eigenvalues --  -10.22581 -10.18547 -10.18262 -10.17832 -10.17167
 Alpha  occ. eigenvalues --  -10.14666 -10.14535 -10.14121 -10.13034 -10.10554
 Alpha  occ. eigenvalues --  -10.10494 -10.08164 -10.06818 -10.06714 -10.06415
 Alpha  occ. eigenvalues --  -10.06373 -10.06355 -10.06306 -10.06025  -7.96055
 Alpha  occ. eigenvalues --   -7.95727  -7.95656  -6.15572  -6.15522  -6.15402
 Alpha  occ. eigenvalues --   -6.15248  -6.15195  -6.15177  -6.15126  -6.15076
 Alpha  occ. eigenvalues --   -6.15019  -5.42023  -5.41989  -5.41969  -5.41950
 Alpha  occ. eigenvalues --   -5.41925  -2.35144  -1.37922  -1.37865  -1.37613
 Alpha  occ. eigenvalues --   -1.27932  -1.27894  -1.27840  -1.27810  -1.27552
 Alpha  occ. eigenvalues --   -1.27489  -1.24618  -1.24557  -1.23618  -1.20127
 Alpha  occ. eigenvalues --   -1.19237  -1.18541  -1.15025  -1.12211  -1.10499
 Alpha  occ. eigenvalues --   -1.09492  -1.07394  -1.06874  -1.06539  -1.05458
 Alpha  occ. eigenvalues --   -1.05152  -1.04968  -1.00108  -0.97695  -0.95652
 Alpha  occ. eigenvalues --   -0.92042  -0.90469  -0.87651  -0.84238  -0.81174
 Alpha  occ. eigenvalues --   -0.80554  -0.80294  -0.79917  -0.79576  -0.78965
 Alpha  occ. eigenvalues --   -0.76785  -0.76596  -0.74253  -0.72254  -0.72094
 Alpha  occ. eigenvalues --   -0.71912  -0.71773  -0.67903  -0.67836  -0.67797
 Alpha  occ. eigenvalues --   -0.67728  -0.67498  -0.67424  -0.66890  -0.66144
 Alpha  occ. eigenvalues --   -0.65531  -0.65078  -0.63649  -0.63264  -0.62703
 Alpha  occ. eigenvalues --   -0.62425  -0.62050  -0.61862  -0.61780  -0.61695
 Alpha  occ. eigenvalues --   -0.61649  -0.61561  -0.61475  -0.61351  -0.59899
 Alpha  occ. eigenvalues --   -0.58793  -0.58211  -0.57548  -0.57392  -0.57007
 Alpha  occ. eigenvalues --   -0.56726  -0.56253  -0.56071  -0.55761  -0.55726
 Alpha  occ. eigenvalues --   -0.55264  -0.55140  -0.55059  -0.54918  -0.54558
 Alpha  occ. eigenvalues --   -0.54282  -0.53958  -0.53869  -0.53775  -0.53338
 Alpha  occ. eigenvalues --   -0.53256  -0.52560  -0.52042  -0.51841  -0.51719
 Alpha  occ. eigenvalues --   -0.51680  -0.51553  -0.51405  -0.51092  -0.51005
 Alpha  occ. eigenvalues --   -0.50595  -0.50408  -0.49551  -0.49297  -0.49181
 Alpha  occ. eigenvalues --   -0.48863  -0.48790  -0.48561  -0.47922  -0.47249
 Alpha  occ. eigenvalues --   -0.46926  -0.46552  -0.46170  -0.45671  -0.45296
 Alpha  occ. eigenvalues --   -0.45214  -0.44904  -0.44560  -0.44098  -0.43629
 Alpha  occ. eigenvalues --   -0.43398  -0.43249  -0.43085  -0.42621  -0.42431
 Alpha  occ. eigenvalues --   -0.42182  -0.42051  -0.41467  -0.41064  -0.40788
 Alpha  occ. eigenvalues --   -0.40702  -0.40202  -0.39667  -0.39520  -0.39443
 Alpha  occ. eigenvalues --   -0.39212  -0.38975  -0.38837  -0.38145  -0.37862
 Alpha  occ. eigenvalues --   -0.37595  -0.37389  -0.37173  -0.36763  -0.36590
 Alpha  occ. eigenvalues --   -0.36488  -0.36127  -0.35832  -0.32325  -0.30003
 Alpha  occ. eigenvalues --   -0.29847  -0.26958
 Alpha virt. eigenvalues --   -0.08080  -0.04855  -0.04504  -0.02273  -0.01188
 Alpha virt. eigenvalues --   -0.00115   0.00735   0.03540   0.04730   0.04981
 Alpha virt. eigenvalues --    0.05488   0.05913   0.06586   0.06791   0.06882
 Alpha virt. eigenvalues --    0.08127   0.08654   0.08812   0.09393   0.09827
 Alpha virt. eigenvalues --    0.10176   0.10338   0.10646   0.10835   0.11155
 Alpha virt. eigenvalues --    0.11284   0.11633   0.12122   0.12495   0.12670
 Alpha virt. eigenvalues --    0.12916   0.13270   0.13726   0.13961   0.14541
 Alpha virt. eigenvalues --    0.14927   0.15637   0.15718   0.15994   0.16100
 Alpha virt. eigenvalues --    0.16473   0.17352   0.17453   0.17932   0.18299
 Alpha virt. eigenvalues --    0.18535   0.19230   0.19680   0.20128   0.21029
 Alpha virt. eigenvalues --    0.21217   0.21409   0.22115   0.22774   0.23165
 Alpha virt. eigenvalues --    0.23336   0.24035   0.24476   0.24485   0.25023
 Alpha virt. eigenvalues --    0.25218   0.25529   0.25859   0.26000   0.26298
 Alpha virt. eigenvalues --    0.26627   0.26919   0.27146   0.27834   0.28097
 Alpha virt. eigenvalues --    0.28288   0.28824   0.29490   0.30335   0.30552
 Alpha virt. eigenvalues --    0.31099   0.31866   0.32138   0.32536   0.33353
 Alpha virt. eigenvalues --    0.34059   0.34271   0.34471   0.34851   0.35766
 Alpha virt. eigenvalues --    0.35978   0.37102   0.38348   0.38953   0.39396
 Alpha virt. eigenvalues --    0.39804   0.40125   0.41273   0.41862   0.42271
 Alpha virt. eigenvalues --    0.42515   0.43675   0.44074   0.44481   0.45064
 Alpha virt. eigenvalues --    0.45688   0.45955   0.46260   0.46727   0.47097
 Alpha virt. eigenvalues --    0.47306   0.47429   0.48357   0.48405   0.48591
[...]
    33   Atom        0.000000      0.000000      0.000000
    34   Atom        0.000000      0.000000      0.000000
    35   Atom        0.000000      0.000000      0.000000
    36   Atom        0.000000      0.000000      0.000000
    37   Atom        0.000000      0.000000      0.000000
    38   Atom        0.000000      0.000000      0.000000
    39   Atom        0.000000      0.000000      0.000000
    40   Atom        0.000000      0.000000      0.000000
    41   Atom        0.000000      0.000000      0.000000
    42   Atom        0.000000      0.000000      0.000000
    43   Atom        0.000000      0.000000      0.000000
    44   Atom        0.000000      0.000000      0.000000
    45   Atom        0.000000      0.000000      0.000000
    46   Atom        0.000000      0.000000      0.000000
    47   Atom        0.000000      0.000000      0.000000
    48   Atom        0.000000      0.000000      0.000000
    49   Atom        0.000000      0.000000      0.000000
    50   Atom        0.000000      0.000000      0.000000
    51   Atom        0.000000      0.000000      0.000000
    52   Atom        0.000000      0.000000      0.000000
    53   Atom        0.000000      0.000000      0.000000
    54   Atom        0.000000      0.000000      0.000000
    55   Atom        0.000000      0.000000      0.000000
    56   Atom        0.000000      0.000000      0.000000
    57   Atom        0.000000      0.000000      0.000000
    58   Atom        0.000000      0.000000      0.000000
    59   Atom        0.000000      0.000000      0.000000
    60   Atom        0.000000      0.000000      0.000000
    61   Atom        0.000000      0.000000      0.000000
    62   Atom        0.000000      0.000000      0.000000
    63   Atom        0.000000      0.000000      0.000000
    64   Atom        0.000000      0.000000      0.000000
    65   Atom        0.000000      0.000000      0.000000
    66   Atom        0.000000      0.000000      0.000000
    67   Atom        0.000000      0.000000      0.000000
 --------------------------------------------------------


 ---------------------------------------------------------------------------------
              Anisotropic Spin Dipole Couplings in Principal Axis System
 ---------------------------------------------------------------------------------

       Atom             a.u.   MegaHertz   Gauss  10(-4) cm-1        Axes

              Baa     0.0000     0.000     0.000     0.000  1.0000  0.0000  0.0000
     1 C(13)  Bbb     0.0000     0.000     0.000     0.000 -0.0000  1.0000  0.0000
              Bcc     0.0000     0.000     0.000     0.000  0.0000  0.0000  1.0000
 
              Baa     0.0000     0.000     0.000     0.000  1.0000  0.0000  0.0000
     2 C(13)  Bbb     0.0000     0.000     0.000     0.000 -0.0000  1.0000  0.0000
              Bcc     0.0000     0.000     0.000     0.000  0.0000  0.0000  1.0000
 
              Baa     0.0000     0.000     0.000     0.000  1.0000  0.0000  0.0000
     3 C(13)  Bbb     0.0000     0.000     0.000     0.000 -0.0000  1.0000  0.0000
              Bcc     0.0000     0.000     0.000     0.000  0.0000  0.0000  1.0000
 
              Baa     0.0000    -0.000    -0.000    -0.000  1.0000  0.0000  0.0000
     4 O(17)  Bbb     0.0000    -0.000    -0.000    -0.000 -0.0000  1.0000  0.0000
              Bcc     0.0000    -0.000    -0.000    -0.000  0.0000  0.0000  1.0000
 
              Baa     0.0000    -0.000    -0.000    -0.000  1.0000  0.0000  0.0000
     5 O(17)  Bbb     0.0000    -0.000    -0.000    -0.000 -0.0000  1.0000  0.0000
              Bcc     0.0000    -0.000    -0.000    -0.000  0.0000  0.0000  1.0000
 
              Baa     0.0000    -0.000    -0.000    -0.000  1.0000  0.0000  0.0000
     6 O(17)  Bbb     0.0000    -0.000    -0.000    -0.000 -0.0000  1.0000  0.0000
              Bcc     0.0000    -0.000    -0.000    -0.000  0.0000  0.0000  1.0000
 
              Baa     0.0000    -0.000    -0.000    -0.000  1.0000  0.0000  0.0000
     7 O(17)  Bbb     0.0000    -0.000    -0.000    -0.000 -0.0000  1.0000  0.0000
              Bcc     0.0000    -0.000    -0.000    -0.000  0.0000  0.0000  1.0000
 
              Baa     0.0000    -0.000    -0.000    -0.000  1.0000  0.0000  0.0000
     8 O(17)  Bbb     0.0000    -0.000    -0.000    -0.000 -0.0000  1.0000  0.0000
              Bcc     0.0000    -0.000    -0.000    -0.000  0.0000  0.0000  1.0000
 
              Baa     0.0000     0.000     0.000     0.000  1.0000  0.0000  0.0000
     9 S(33)  Bbb     0.0000     0.000     0.000     0.000 -0.0000  1.0000  0.0000
              Bcc     0.0000     0.000     0.000     0.000  0.0000  0.0000  1.0000
 
              Baa     0.0000     0.000     0.000     0.000  1.0000  0.0000  0.0000
    10 S(33)  Bbb     0.0000     0.000     0.000     0.000 -0.0000  1.0000  0.0000
              Bcc     0.0000     0.000     0.000     0.000  0.0000  0.0000  1.0000
 
              Baa     0.0000     0.000     0.000     0.000  1.0000  0.0000  0.0000
    11 S(33)  Bbb     0.0000     0.000     0.000     0.000 -0.0000  1.0000  0.0000
              Bcc     0.0000     0.000     0.000     0.000  0.0000  0.0000  1.0000
 
              Baa     0.0000    -0.000    -0.000    -0.000  1.0000  0.0000  0.0000
    12 O(17)  Bbb     0.0000    -0.000    -0.000    -0.000 -0.0000  1.0000  0.0000
              Bcc     0.0000    -0.000    -0.000    -0.000  0.0000  0.0000  1.0000
 
              Baa     0.0000    -0.000    -0.000    -0.000  1.0000  0.0000  0.0000
    13 O(17)  Bbb     0.0000    -0.000    -0.000    -0.000 -0.0000  1.0000  0.0000
              Bcc     0.0000    -0.000    -0.000    -0.000  0.0000  0.0000  1.0000
 
              Baa     0.0000    -0.000    -0.000    -0.000  1.0000  0.0000  0.0000
    14 O(17)  Bbb     0.0000    -0.000    -0.000    -0.000 -0.0000  1.0000  0.0000
              Bcc     0.0000    -0.000    -0.000    -0.000  0.0000  0.0000  1.0000
 
              Baa     0.0000    -0.000    -0.000    -0.000  1.0000  0.0000  0.0000
    15 O(17)  Bbb     0.0000    -0.000    -0.000    -0.000 -0.0000  1.0000  0.0000
              Bcc     0.0000    -0.000    -0.000    -0.000  0.0000  0.0000  1.0000
 
              Baa     0.0000    -0.000    -0.000    -0.000  1.0000  0.0000  0.0000
    16 O(17)  Bbb     0.0000    -0.000    -0.000    -0.000 -0.0000  1.0000  0.0000
              Bcc     0.0000    -0.000    -0.000    -0.000  0.0000  0.0000  1.0000
 
              Baa     0.0000    -0.000    -0.000    -0.000  1.0000  0.0000  0.0000
    17 O(17)  Bbb     0.0000    -0.000    -0.000    -0.000 -0.0000  1.0000  0.0000
              Bcc     0.0000    -0.000    -0.000    -0.000  0.0000  0.0000  1.0000
 
              Baa     0.0000     0.000     0.000     0.000  1.0000  0.0000  0.0000
    18 C(13)  Bbb     0.0000     0.000     0.000     0.000 -0.0000  1.0000  0.0000
              Bcc     0.0000     0.000     0.000     0.000  0.0000  0.0000  1.0000
 
              Baa     0.0000     0.000     0.000     0.000  1.0000  0.0000  0.0000
    19 C(13)  Bbb     0.0000     0.000     0.000     0.000 -0.0000  1.0000  0.0000
              Bcc     0.0000     0.000     0.000     0.000  0.0000  0.0000  1.0000
 
              Baa     0.0000     0.000     0.000     0.000  1.0000  0.0000  0.0000
    20 C(13)  Bbb     0.0000     0.000     0.000     0.000 -0.0000  1.0000  0.0000
              Bcc     0.0000     0.000     0.000     0.000  0.0000  0.0000  1.0000
 
              Baa     0.0000     0.000     0.000     0.000  1.0000  0.0000  0.0000
    21 F(19)  Bbb     0.0000     0.000     0.000     0.000 -0.0000  1.0000  0.0000
              Bcc     0.0000     0.000     0.000     0.000  0.0000  0.0000  1.0000
 
              Baa     0.0000     0.000     0.000     0.000  1.0000  0.0000  0.0000
    22 F(19)  Bbb     0.0000     0.000     0.000     0.000 -0.0000  1.0000  0.0000
              Bcc     0.0000     0.000     0.000     0.000  0.0000  0.0000  1.0000
 
              Baa     0.0000     0.000     0.000     0.000  1.0000  0.0000  0.0000
    23 F(19)  Bbb     0.0000     0.000     0.000     0.000 -0.0000  1.0000  0.0000
              Bcc     0.0000     0.000     0.000     0.000  0.0000  0.0000  1.0000
 
              Baa     0.0000     0.000     0.000     0.000  1.0000  0.0000  0.0000
    24 F(19)  Bbb     0.0000     0.000     0.000     0.000 -0.0000  1.0000  0.0000
              Bcc     0.0000     0.000     0.000     0.000  0.0000  0.0000  1.0000
 
              Baa     0.0000     0.000     0.000     0.000  1.0000  0.0000  0.0000
    25 F(19)  Bbb     0.0000     0.000     0.000     0.000 -0.0000  1.0000  0.0000
              Bcc     0.0000     0.000     0.000     0.000  0.0000  0.0000  1.0000
 
              Baa     0.0000     0.000     0.000     0.000  1.0000  0.0000  0.0000
    26 F(19)  Bbb     0.0000     0.000     0.000     0.000 -0.0000  1.0000  0.0000
              Bcc     0.0000     0.000     0.000     0.000  0.0000  0.0000  1.0000
 
              Baa     0.0000     0.000     0.000     0.000  1.0000  0.0000  0.0000
    27 F(19)  Bbb     0.0000     0.000     0.000     0.000 -0.0000  1.0000  0.0000
              Bcc     0.0000     0.000     0.000     0.000  0.0000  0.0000  1.0000
 
              Baa     0.0000     0.000     0.000     0.000  1.0000  0.0000  0.0000
    28 F(19)  Bbb     0.0000     0.000     0.000     0.000 -0.0000  1.0000  0.0000
              Bcc     0.0000     0.000     0.000     0.000  0.0000  0.0000  1.0000
 
              Baa     0.0000     0.000     0.000     0.000  1.0000  0.0000  0.0000
    29 F(19)  Bbb     0.0000     0.000     0.000     0.000 -0.0000  1.0000  0.0000
              Bcc     0.0000     0.000     0.000     0.000  0.0000  0.0000  1.0000
 
              Baa     0.0000     0.000     0.000     0.000  1.0000  0.0000  0.0000
    30 C(13)  Bbb     0.0000     0.000     0.000     0.000 -0.0000  1.0000  0.0000
              Bcc     0.0000     0.000     0.000     0.000  0.0000  0.0000  1.0000
 
              Baa     0.0000     0.000     0.000     0.000  1.0000  0.0000  0.0000
    31 C(13)  Bbb     0.0000     0.000     0.000     0.000 -0.0000  1.0000  0.0000
              Bcc     0.0000     0.000     0.000     0.000  0.0000  0.0000  1.0000
 
              Baa     0.0000     0.000     0.000     0.000  1.0000  0.0000  0.0000
    32 C(13)  Bbb     0.0000     0.000     0.000     0.000 -0.0000  1.0000  0.0000
              Bcc     0.0000     0.000     0.000     0.000  0.0000  0.0000  1.0000
 
              Baa     0.0000     0.000     0.000     0.000  1.0000  0.0000  0.0000
    33 C(13)  Bbb     0.0000     0.000     0.000     0.000 -0.0000  1.0000  0.0000
              Bcc     0.0000     0.000     0.000     0.000  0.0000  0.0000  1.0000
 
              Baa     0.0000     0.000     0.000     0.000  1.0000  0.0000  0.0000
    34 C(13)  Bbb     0.0000     0.000     0.000     0.000 -0.0000  1.0000  0.0000
              Bcc     0.0000     0.000     0.000     0.000  0.0000  0.0000  1.0000
 
              Baa     0.0000     0.000     0.000     0.000  1.0000  0.0000  0.0000
    35 C(13)  Bbb     0.0000     0.000     0.000     0.000 -0.0000  1.0000  0.0000
              Bcc     0.0000     0.000     0.000     0.000  0.0000  0.0000  1.0000
 
              Baa     0.0000     0.000     0.000     0.000  1.0000  0.0000  0.0000
    36 C(13)  Bbb     0.0000     0.000     0.000     0.000 -0.0000  1.0000  0.0000
              Bcc     0.0000     0.000     0.000     0.000  0.0000  0.0000  1.0000
 
              Baa     0.0000     0.000     0.000     0.000  1.0000  0.0000  0.0000
    37 H(1)   Bbb     0.0000     0.000     0.000     0.000 -0.0000  1.0000  0.0000
              Bcc     0.0000     0.000     0.000     0.000  0.0000  0.0000  1.0000
 
              Baa     0.0000     0.000     0.000     0.000  1.0000  0.0000  0.0000
    38 H(1)   Bbb     0.0000     0.000     0.000     0.000 -0.0000  1.0000  0.0000
              Bcc     0.0000     0.000     0.000     0.000  0.0000  0.0000  1.0000
 
              Baa     0.0000     0.000     0.000     0.000  1.0000  0.0000  0.0000
    39 H(1)   Bbb     0.0000     0.000     0.000     0.000 -0.0000  1.0000  0.0000
              Bcc     0.0000     0.000     0.000     0.000  0.0000  0.0000  1.0000
 
              Baa     0.0000     0.000     0.000     0.000  1.0000  0.0000  0.0000
    40 N(14)  Bbb     0.0000     0.000     0.000     0.000 -0.0000  1.0000  0.0000
              Bcc     0.0000     0.000     0.000     0.000  0.0000  0.0000  1.0000
 
              Baa     0.0000     0.000     0.000     0.000  1.0000  0.0000  0.0000
    41 N(14)  Bbb     0.0000     0.000     0.000     0.000 -0.0000  1.0000  0.0000
              Bcc     0.0000     0.000     0.000     0.000  0.0000  0.0000  1.0000
 
              Baa     0.0000     0.000     0.000     0.000  1.0000  0.0000  0.0000
    42 N(14)  Bbb     0.0000     0.000     0.000     0.000 -0.0000  1.0000  0.0000
              Bcc     0.0000     0.000     0.000     0.000  0.0000  0.0000  1.0000
 
              Baa     0.0000     0.000     0.000     0.000  1.0000  0.0000  0.0000
    43 N(14)  Bbb     0.0000     0.000     0.000     0.000 -0.0000  1.0000  0.0000
              Bcc     0.0000     0.000     0.000     0.000  0.0000  0.0000  1.0000
 
              Baa     0.0000     0.000     0.000     0.000  1.0000  0.0000  0.0000
    44 C(13)  Bbb     0.0000     0.000     0.000     0.000 -0.0000  1.0000  0.0000
              Bcc     0.0000     0.000     0.000     0.000  0.0000  0.0000  1.0000
 
              Baa     0.0000     0.000     0.000     0.000  1.0000  0.0000  0.0000
    45 H(1)   Bbb     0.0000     0.000     0.000     0.000 -0.0000  1.0000  0.0000
              Bcc     0.0000     0.000     0.000     0.000  0.0000  0.0000  1.0000
 
              Baa     0.0000     0.000     0.000     0.000  1.0000  0.0000  0.0000
    46 H(1)   Bbb     0.0000     0.000     0.000     0.000 -0.0000  1.0000  0.0000
              Bcc     0.0000     0.000     0.000     0.000  0.0000  0.0000  1.0000
 
              Baa     0.0000     0.000     0.000     0.000  1.0000  0.0000  0.0000
    47 C(13)  Bbb     0.0000     0.000     0.000     0.000 -0.0000  1.0000  0.0000
              Bcc     0.0000     0.000     0.000     0.000  0.0000  0.0000  1.0000
 
              Baa     0.0000     0.000     0.000     0.000  1.0000  0.0000  0.0000
    48 C(13)  Bbb     0.0000     0.000     0.000     0.000 -0.0000  1.0000  0.0000
              Bcc     0.0000     0.000     0.000     0.000  0.0000  0.0000  1.0000
 
              Baa     0.0000     0.000     0.000     0.000  1.0000  0.0000  0.0000
    49 C(13)  Bbb     0.0000     0.000     0.000     0.000 -0.0000  1.0000  0.0000
              Bcc     0.0000     0.000     0.000     0.000  0.0000  0.0000  1.0000
 
              Baa     0.0000     0.000     0.000     0.000  1.0000  0.0000  0.0000
    50 C(13)  Bbb     0.0000     0.000     0.000     0.000 -0.0000  1.0000  0.0000
              Bcc     0.0000     0.000     0.000     0.000  0.0000  0.0000  1.0000
 
              Baa     0.0000     0.000     0.000     0.000  1.0000  0.0000  0.0000
    51 H(1)   Bbb     0.0000     0.000     0.000     0.000 -0.0000  1.0000  0.0000
              Bcc     0.0000     0.000     0.000     0.000  0.0000  0.0000  1.0000
 
              Baa     0.0000     0.000     0.000     0.000  1.0000  0.0000  0.0000
    52 C(13)  Bbb     0.0000     0.000     0.000     0.000 -0.0000  1.0000  0.0000
              Bcc     0.0000     0.000     0.000     0.000  0.0000  0.0000  1.0000
 
              Baa     0.0000     0.000     0.000     0.000  1.0000  0.0000  0.0000
    53 H(1)   Bbb     0.0000     0.000     0.000     0.000 -0.0000  1.0000  0.0000
              Bcc     0.0000     0.000     0.000     0.000  0.0000  0.0000  1.0000
 
              Baa     0.0000     0.000     0.000     0.000  1.0000  0.0000  0.0000
    54 C(13)  Bbb     0.0000     0.000     0.000     0.000 -0.0000  1.0000  0.0000
              Bcc     0.0000     0.000     0.000     0.000  0.0000  0.0000  1.0000
 
              Baa     0.0000     0.000     0.000     0.000  1.0000  0.0000  0.0000
    55 H(1)   Bbb     0.0000     0.000     0.000     0.000 -0.0000  1.0000  0.0000
              Bcc     0.0000     0.000     0.000     0.000  0.0000  0.0000  1.0000
 
              Baa     0.0000     0.000     0.000     0.000  1.0000  0.0000  0.0000
    56 H(1)   Bbb     0.0000     0.000     0.000     0.000 -0.0000  1.0000  0.0000
              Bcc     0.0000     0.000     0.000     0.000  0.0000  0.0000  1.0000
 
              Baa     0.0000     0.000     0.000     0.000  1.0000  0.0000  0.0000
    57 H(1)   Bbb     0.0000     0.000     0.000     0.000 -0.0000  1.0000  0.0000
              Bcc     0.0000     0.000     0.000     0.000  0.0000  0.0000  1.0000
 
              Baa     0.0000     0.000     0.000     0.000  1.0000  0.0000  0.0000
    58 Lu(175 Bbb     0.0000     0.000     0.000     0.000 -0.0000  1.0000  0.0000
              Bcc     0.0000     0.000     0.000     0.000  0.0000  0.0000  1.0000
 
              Baa     0.0000    -0.000    -0.000    -0.000  1.0000  0.0000  0.0000
    59 O(17)  Bbb     0.0000    -0.000    -0.000    -0.000 -0.0000  1.0000  0.0000
              Bcc     0.0000    -0.000    -0.000    -0.000  0.0000  0.0000  1.0000
 
              Baa     0.0000     0.000     0.000     0.000  1.0000  0.0000  0.0000
    60 C(13)  Bbb     0.0000     0.000     0.000     0.000 -0.0000  1.0000  0.0000
              Bcc     0.0000     0.000     0.000     0.000  0.0000  0.0000  1.0000
 
              Baa     0.0000     0.000     0.000     0.000  1.0000  0.0000  0.0000
    61 H(1)   Bbb     0.0000     0.000     0.000     0.000 -0.0000  1.0000  0.0000
              Bcc     0.0000     0.000     0.000     0.000  0.0000  0.0000  1.0000
 
              Baa     0.0000     0.000     0.000     0.000  1.0000  0.0000  0.0000
    62 H(1)   Bbb     0.0000     0.000     0.000     0.000 -0.0000  1.0000  0.0000
              Bcc     0.0000     0.000     0.000     0.000  0.0000  0.0000  1.0000
 
              Baa     0.0000     0.000     0.000     0.000  1.0000  0.0000  0.0000
    63 H(1)   Bbb     0.0000     0.000     0.000     0.000 -0.0000  1.0000  0.0000
              Bcc     0.0000     0.000     0.000     0.000  0.0000  0.0000  1.0000
 
              Baa     0.0000     0.000     0.000     0.000  1.0000  0.0000  0.0000
    64 C(13)  Bbb     0.0000     0.000     0.000     0.000 -0.0000  1.0000  0.0000
              Bcc     0.0000     0.000     0.000     0.000  0.0000  0.0000  1.0000
 
              Baa     0.0000     0.000     0.000     0.000  1.0000  0.0000  0.0000
    65 H(1)   Bbb     0.0000     0.000     0.000     0.000 -0.0000  1.0000  0.0000
              Bcc     0.0000     0.000     0.000     0.000  0.0000  0.0000  1.0000
 
              Baa     0.0000     0.000     0.000     0.000  1.0000  0.0000  0.0000
    66 H(1)   Bbb     0.0000     0.000     0.000     0.000 -0.0000  1.0000  0.0000
              Bcc     0.0000     0.000     0.000     0.000  0.0000  0.0000  1.0000
 
              Baa     0.0000     0.000     0.000     0.000  1.0000  0.0000  0.0000
    67 H(1)   Bbb     0.0000     0.000     0.000     0.000 -0.0000  1.0000  0.0000
              Bcc     0.0000     0.000     0.000     0.000  0.0000  0.0000  1.0000
 

 ---------------------------------------------------------------------------------

 No NMR shielding tensors so no spin-rotation constants.
 Leave Link  601 at Sun May  4 12:10:55 2025, MaxMem= 12348030976 cpu:              50.6 elap:               2.4
 (Enter /sysapps/ubuntu-applications/gaussian-new/avx/g16/l9999.exe)

 This type of calculation cannot be archived.


 THERE IS MORE TO LIFE THAN INCREASING ITS SPEED.

                                       -- GANDHI
 Job cpu time:      15 days  8 hours  5 minutes 51.8 seconds.
 Elapsed time:       0 days 15 hours 46 minutes 33.4 seconds.
 File lengths (MBytes):  RWF=  12772 Int=      0 D2E=      0 Chk=    128 Scr=      8
 Normal termination of Gaussian 16 at Sun May  4 12:10:55 2025.
