 Entering Gaussian System, Link 0=/sysapps/ubuntu-applications/gaussian-new/avx/g16//g16
 Input=i2.in
 Output=i2.log
 Initial command:
 /sysapps/ubuntu-applications/gaussian-new/avx/g16/l1.exe "/data/temp-scratch/selhajj1/313612/Gau-3034063.inp" -scrdir="/data/temp-scratch/selhajj1/313612/"
 Entering Link 1 = /sysapps/ubuntu-applications/gaussian-new/avx/g16/l1.exe PID=   3034065.
  
 Copyright (c) 1988,1990,1992,1993,1995,1998,2003,2009,2016,
            Gaussian, Inc.  All Rights Reserved.
  
 This is part of the Gaussian(R) 16 program.  It is based on
 the Gaussian(R) 09 system (copyright 2009, Gaussian, Inc.),
 the Gaussian(R) 03 system (copyright 2003, Gaussian, Inc.),
 the Gaussian(R) 98 system (copyright 1998, Gaussian, Inc.),
 the Gaussian(R) 94 system (copyright 1995, Gaussian, Inc.),
 the Gaussian 92(TM) system (copyright 1992, Gaussian, Inc.),
 the Gaussian 90(TM) system (copyright 1990, Gaussian, Inc.),
 the Gaussian 88(TM) system (copyright 1988, Gaussian, Inc.),
 the Gaussian 86(TM) system (copyright 1986, Carnegie Mellon
 University), and the Gaussian 82(TM) system (copyright 1983,
 Carnegie Mellon University). Gaussian is a federally registered
 trademark of Gaussian, Inc.
  
 This software contains proprietary and confidential information,
 including trade secrets, belonging to Gaussian, Inc.
  
 This software is provided under written license and may be
 used, copied, transmitted, or stored only in accord with that
 written license.
  
 The following legend is applicable only to US Government
 contracts under FAR:
  
                    RESTRICTED RIGHTS LEGEND
  
 Use, reproduction and disclosure by the US Government is
 subject to restrictions as set forth in subparagraphs (a)
 and (c) of the Commercial Computer Software - Restricted
 Rights clause in FAR 52.227-19.
  
 Gaussian, Inc.
 340 Quinnipiac St., Bldg. 40, Wallingford CT 06492
  
  
 ---------------------------------------------------------------
 Warning -- This program may not be used in any manner that
 competes with the business of Gaussian, Inc. or will provide
 assistance to any competitor of Gaussian, Inc.  The licensee
 of this program is prohibited from giving any competitor of
 Gaussian, Inc. access to this program.  By using this program,
 the user acknowledges that Gaussian, Inc. is engaged in the
 business of creating and licensing software in the field of
 computational chemistry and represents and warrants to the
 licensee that it is not a competitor of Gaussian, Inc. and that
 it will not use this program in any manner prohibited above.
 ---------------------------------------------------------------
  

 Cite this work as:
 Gaussian 16, Revision A.03,
 M. J. Frisch, G. W. Trucks, H. B. Schlegel, G. E. Scuseria, 
 M. A. Robb, J. R. Cheeseman, G. Scalmani, V. Barone, 
 G. A. Petersson, H. Nakatsuji, X. Li, M. Caricato, A. V. Marenich, 
 J. Bloino, B. G. Janesko, R. Gomperts, B. Mennucci, H. P. Hratchian, 
 J. V. Ortiz, A. F. Izmaylov, J. L. Sonnenberg, D. Williams-Young, 
 F. Ding, F. Lipparini, F. Egidi, J. Goings, B. Peng, A. Petrone, 
 T. Henderson, D. Ranasinghe, V. G. Zakrzewski, J. Gao, N. Rega, 
 G. Zheng, W. Liang, M. Hada, M. Ehara, K. Toyota, R. Fukuda, 
 J. Hasegawa, M. Ishida, T. Nakajima, Y. Honda, O. Kitao, H. Nakai, 
 T. Vreven, K. Throssell, J. A. Montgomery, Jr., J. E. Peralta, 
 F. Ogliaro, M. J. Bearpark, J. J. Heyd, E. N. Brothers, K. N. Kudin, 
 V. N. Staroverov, T. A. Keith, R. Kobayashi, J. Normand, 
 K. Raghavachari, A. P. Rendell, J. C. Burant, S. S. Iyengar, 
 J. Tomasi, M. Cossi, J. M. Millam, M. Klene, C. Adamo, R. Cammi, 
 J. W. Ochterski, R. L. Martin, K. Morokuma, O. Farkas, 
 J. B. Foresman, and D. J. Fox, Gaussian, Inc., Wallingford CT, 2016.
 
 ******************************************
 Gaussian 16:  ES64L-G16RevA.03 25-Dec-2016
                 4-May-2025 
 ******************************************
 %chk=i2.chk
 %mem=616Gb
 %nprocshared=24
 Will use up to   24 processors via shared memory.
 ----------------------------------------------------------------------
 #P MN15/genecp scf=(maxcyc=500) opt freq scrf=(smd,solvent=DiChloroEth
 ane)
 ----------------------------------------------------------------------
 1/18=20,19=15,26=3,38=1/1,3;
 2/9=110,12=2,17=6,18=5,40=1/2;
 3/5=7,11=2,16=1,17=8,25=1,30=1,70=32201,71=1,72=10,74=-73/1,2,3;
 4//1;
 5/5=2,7=500,38=5,53=10/2;
 6/7=2,8=2,9=2,10=2,28=1/1;
 7//1,2,3,16;
 1/18=20,19=15,26=3/3(2);
 2/9=110/2;
 99//99;
 2/9=110/2;
 3/5=7,6=1,11=2,16=1,17=8,25=1,30=1,70=32205,71=1,72=10,74=-73,82=7/1,2,3;
 4/5=5,16=3,69=1/1;
 5/5=2,7=500,38=5,53=10/2;
 7//1,2,3,16;
 1/18=20,19=15,26=3/3(-5);
 2/9=110/2;
 6/7=2,8=2,9=2,10=2,19=2,28=1/1;
 99/9=1/99;
 Leave Link    1 at Sun May  4 11:11:15 2025, MaxMem= 82678120448 cpu:              21.5 elap:               1.0
 (Enter /sysapps/ubuntu-applications/gaussian-new/avx/g16/l101.exe)
 ---
 Opt
 ---
 Symbolic Z-matrix:
 Charge =  0 Multiplicity = 1
 C                    -2.2845    0.12047   0.93752 
 C                    -1.89603   0.41556  -0.39828 
 C                    -1.34683  -0.27152   1.93103 
 O                    -0.13519  -0.55798   1.66661 
 O                    -0.73787   0.13242  -0.847 
 O                     2.99297  -1.11723   1.05832 
 O                     2.21326  -0.42074  -1.92818 
 O                     0.18189   2.19823   0.81538 
 S                     1.05114   3.06603  -0.02348 
 S                     3.516    -0.0621    1.98188 
 S                     1.95026  -1.89282  -1.93182 
 O                     1.94386   2.14423  -0.79278 
 O                     1.65293   4.22155   0.59247 
 O                     2.55851   1.07353   1.86853 
 O                     3.93933  -0.4713    3.29544 
 O                     1.15722  -2.1721   -0.70374 
 O                     1.47431  -2.47783  -3.16387 
 C                     3.63162  -2.6546   -1.63801 
 C                     5.0146    0.54165   1.10548 
 C                    -0.08441   3.7361   -1.32275 
 F                     3.53787  -3.57002  -0.6938 
 F                     4.50376  -1.73269  -1.28139 
 F                     4.03682  -3.2206   -2.76036 
 F                     4.66431   0.94284  -0.10569 
 F                     5.89558  -0.43667   1.01035 
 F                     5.54229   1.55166   1.77106 
 F                    -0.25145   2.84064  -2.28127 
 F                     0.43627   4.83321  -1.83917 
 F                    -1.25719   4.01785  -0.77984 
 C                    -4.80359  -0.11805   1.16418 
 C                    -4.80619  -1.70681   1.1518 
 C                    -6.12998  -2.21536   0.74144 
 C                    -4.60351  -2.1519    2.54453 
 C                    -1.60713  -3.2061   -0.11215 
 C                    -3.11301  -2.60023  -1.87274 
 C                    -1.84638  -3.07031  -1.46876 
 H                    -0.66625  -3.5858    0.28056 
 H                    -3.38254  -2.50469  -2.92439 
 H                    -1.08448  -3.31585  -2.21313 
 N                    -7.17848  -2.61817   0.4673 
 N                    -4.50261  -2.48519   3.64698 
 N                    -3.7596   -2.32239   0.27419 
 N                    -4.03815  -2.23023  -1.00886 
 C                    -2.6134   -2.80875   0.7677 
 H                    -2.50292  -2.87171   1.85278 
 H                    -5.36974   0.07079   2.09221 
 C                    -5.5852    0.64698   0.09944 
 C                    -5.75981   2.00179   0.43088 
 C                    -6.09657   0.17695  -1.11348 
 C                    -6.3961    2.87671  -0.44489 
 H                    -5.37064   2.37271   1.38283 
 C                    -6.7441    1.05578  -1.98886 
 H                    -5.9783   -0.86338  -1.41235 
 C                    -6.88762   2.40407  -1.66575 
 H                    -6.51549   3.9274   -0.1724 
 H                    -7.13179   0.67456  -2.93603 
 H                    -7.38899   3.08424  -2.35763 
 Lu                    1.22935   0.12223   0.11493 
 O                    -3.54688   0.46368   1.41978 
 C                    -1.75456  -0.35262   3.37271 
 H                    -2.68644   0.17985   3.5946 
 H                    -1.88172  -1.40839   3.65889 
 H                    -0.93252   0.03701   3.97634 
 C                    -2.83779   1.10534  -1.33463 
 H                    -3.60411   0.41333  -1.70605 
 H                    -3.36155   1.92177  -0.82254 
 H                    -2.26749   1.48917  -2.18753 
 
 ITRead=  0  0  0  0  0  0  0  0  0  0  0  0  0  0  0  0  0  0  0  0
 ITRead=  0  0  0  0  0  0  0  0  0  0  0  0  0  0  0  0  0  0  0  0
 ITRead=  0  0  0  0  0  0  0  0  0  0  0  0  0  0  0  0  0  0  0  0
 ITRead=  0  0  0  0  0  0  0
 MicOpt= -1 -1 -1 -1 -1 -1 -1 -1 -1 -1 -1 -1 -1 -1 -1 -1 -1 -1 -1 -1
 MicOpt= -1 -1 -1 -1 -1 -1 -1 -1 -1 -1 -1 -1 -1 -1 -1 -1 -1 -1 -1 -1
 MicOpt= -1 -1 -1 -1 -1 -1 -1 -1 -1 -1 -1 -1 -1 -1 -1 -1 -1 -1 -1 -1
 MicOpt= -1 -1 -1 -1 -1 -1 -1
 NAtoms=     67 NQM=       67 NQMF=       0 NMMI=      0 NMMIF=      0
                NMic=       0 NMicF=      0.
                    Isotopes and Nuclear Properties:
 (Nuclear quadrupole moments (NQMom) in fm**2, nuclear magnetic moments (NMagM)
  in nuclear magnetons)

  Atom         1           2           3           4           5           6           7           8           9          10
 IAtWgt=          12          12          12          16          16          16          16          16          32          32
 AtmWgt=  12.0000000  12.0000000  12.0000000  15.9949146  15.9949146  15.9949146  15.9949146  15.9949146  31.9720718  31.9720718
 NucSpn=           0           0           0           0           0           0           0           0           0           0
 AtZEff=  -0.0000000  -0.0000000  -0.0000000  -0.0000000  -0.0000000  -0.0000000  -0.0000000  -0.0000000  -0.0000000  -0.0000000
 NQMom=    0.0000000   0.0000000   0.0000000   0.0000000   0.0000000   0.0000000   0.0000000   0.0000000   0.0000000   0.0000000
 NMagM=    0.0000000   0.0000000   0.0000000   0.0000000   0.0000000   0.0000000   0.0000000   0.0000000   0.0000000   0.0000000
 AtZNuc=   6.0000000   6.0000000   6.0000000   8.0000000   8.0000000   8.0000000   8.0000000   8.0000000  16.0000000  16.0000000

  Atom        11          12          13          14          15          16          17          18          19          20
 IAtWgt=          32          16          16          16          16          16          16          12          12          12
 AtmWgt=  31.9720718  15.9949146  15.9949146  15.9949146  15.9949146  15.9949146  15.9949146  12.0000000  12.0000000  12.0000000
 NucSpn=           0           0           0           0           0           0           0           0           0           0
 AtZEff=  -0.0000000  -0.0000000  -0.0000000  -0.0000000  -0.0000000  -0.0000000  -0.0000000  -0.0000000  -0.0000000  -0.0000000
 NQMom=    0.0000000   0.0000000   0.0000000   0.0000000   0.0000000   0.0000000   0.0000000   0.0000000   0.0000000   0.0000000
 NMagM=    0.0000000   0.0000000   0.0000000   0.0000000   0.0000000   0.0000000   0.0000000   0.0000000   0.0000000   0.0000000
 AtZNuc=  16.0000000   8.0000000   8.0000000   8.0000000   8.0000000   8.0000000   8.0000000   6.0000000   6.0000000   6.0000000

  Atom        21          22          23          24          25          26          27          28          29          30
 IAtWgt=          19          19          19          19          19          19          19          19          19          12
 AtmWgt=  18.9984032  18.9984032  18.9984032  18.9984032  18.9984032  18.9984032  18.9984032  18.9984032  18.9984032  12.0000000
 NucSpn=           1           1           1           1           1           1           1           1           1           0
 AtZEff=  -0.0000000  -0.0000000  -0.0000000  -0.0000000  -0.0000000  -0.0000000  -0.0000000  -0.0000000  -0.0000000  -0.0000000
 NQMom=    0.0000000   0.0000000   0.0000000   0.0000000   0.0000000   0.0000000   0.0000000   0.0000000   0.0000000   0.0000000
 NMagM=    2.6288670   2.6288670   2.6288670   2.6288670   2.6288670   2.6288670   2.6288670   2.6288670   2.6288670   0.0000000
 AtZNuc=   9.0000000   9.0000000   9.0000000   9.0000000   9.0000000   9.0000000   9.0000000   9.0000000   9.0000000   6.0000000

  Atom        31          32          33          34          35          36          37          38          39          40
 IAtWgt=          12          12          12          12          12          12           1           1           1          14
 AtmWgt=  12.0000000  12.0000000  12.0000000  12.0000000  12.0000000  12.0000000   1.0078250   1.0078250   1.0078250  14.0030740
 NucSpn=           0           0           0           0           0           0           1           1           1           2
 AtZEff=  -0.0000000  -0.0000000  -0.0000000  -0.0000000  -0.0000000  -0.0000000  -0.0000000  -0.0000000  -0.0000000  -0.0000000
 NQMom=    0.0000000   0.0000000   0.0000000   0.0000000   0.0000000   0.0000000   0.0000000   0.0000000   0.0000000   2.0440000
 NMagM=    0.0000000   0.0000000   0.0000000   0.0000000   0.0000000   0.0000000   2.7928460   2.7928460   2.7928460   0.4037610
 AtZNuc=   6.0000000   6.0000000   6.0000000   6.0000000   6.0000000   6.0000000   1.0000000   1.0000000   1.0000000   7.0000000

  Atom        41          42          43          44          45          46          47          48          49          50
 IAtWgt=          14          14          14          12           1           1          12          12          12          12
 AtmWgt=  14.0030740  14.0030740  14.0030740  12.0000000   1.0078250   1.0078250  12.0000000  12.0000000  12.0000000  12.0000000
 NucSpn=           2           2           2           0           1           1           0           0           0           0
 AtZEff=  -0.0000000  -0.0000000  -0.0000000  -0.0000000  -0.0000000  -0.0000000  -0.0000000  -0.0000000  -0.0000000  -0.0000000
 NQMom=    2.0440000   2.0440000   2.0440000   0.0000000   0.0000000   0.0000000   0.0000000   0.0000000   0.0000000   0.0000000
 NMagM=    0.4037610   0.4037610   0.4037610   0.0000000   2.7928460   2.7928460   0.0000000   0.0000000   0.0000000   0.0000000
 AtZNuc=   7.0000000   7.0000000   7.0000000   6.0000000   1.0000000   1.0000000   6.0000000   6.0000000   6.0000000   6.0000000

  Atom        51          52          53          54          55          56          57          58          59          60
 IAtWgt=           1          12           1          12           1           1           1         175          16          12
 AtmWgt=   1.0078250  12.0000000   1.0078250  12.0000000   1.0078250   1.0078250   1.0078250 174.9409000  15.9949146  12.0000000
 NucSpn=           1           0           1           0           1           1           1           7           0           0
 AtZEff=  -0.0000000  -0.0000000  -0.0000000  -0.0000000  -0.0000000  -0.0000000  -0.0000000  -0.0000000  -0.0000000  -0.0000000
 NQMom=    0.0000000   0.0000000   0.0000000   0.0000000   0.0000000   0.0000000   0.0000000 349.0000000   0.0000000   0.0000000
 NMagM=    2.7928460   0.0000000   2.7928460   0.0000000   2.7928460   2.7928460   2.7928460   2.2327000   0.0000000   0.0000000
 AtZNuc=   1.0000000   6.0000000   1.0000000   6.0000000   1.0000000   1.0000000   1.0000000  71.0000000   8.0000000   6.0000000

  Atom        61          62          63          64          65          66          67
 IAtWgt=           1           1           1          12           1           1           1
 AtmWgt=   1.0078250   1.0078250   1.0078250  12.0000000   1.0078250   1.0078250   1.0078250
 NucSpn=           1           1           1           0           1           1           1
 AtZEff=  -0.0000000  -0.0000000  -0.0000000  -0.0000000  -0.0000000  -0.0000000  -0.0000000
 NQMom=    0.0000000   0.0000000   0.0000000   0.0000000   0.0000000   0.0000000   0.0000000
 NMagM=    2.7928460   2.7928460   2.7928460   0.0000000   2.7928460   2.7928460   2.7928460
 AtZNuc=   1.0000000   1.0000000   1.0000000   6.0000000   1.0000000   1.0000000   1.0000000
 Leave Link  101 at Sun May  4 11:11:16 2025, MaxMem= 82678120448 cpu:              10.7 elap:               0.5
 (Enter /sysapps/ubuntu-applications/gaussian-new/avx/g16/l103.exe)

 GradGradGradGradGradGradGradGradGradGradGradGradGradGradGradGradGradGrad
 Berny optimization.
 Initialization pass.
                           ----------------------------
                           !    Initial Parameters    !
                           ! (Angstroms and Degrees)  !
 --------------------------                            --------------------------
 ! Name  Definition              Value          Derivative Info.                !
 --------------------------------------------------------------------------------
 ! R1    R(1,2)                  1.4221         estimate D2E/DX2                !
 ! R2    R(1,3)                  1.4212         estimate D2E/DX2                !
 ! R3    R(1,59)                 1.3943         estimate D2E/DX2                !
 ! R4    R(2,5)                  1.2739         estimate D2E/DX2                !
 ! R5    R(2,64)                 1.4965         estimate D2E/DX2                !
 ! R6    R(3,4)                  1.2728         estimate D2E/DX2                !
 ! R7    R(3,60)                 1.5004         estimate D2E/DX2                !
 ! R8    R(4,58)                 2.1754         estimate D2E/DX2                !
 ! R9    R(5,58)                 2.1898         estimate D2E/DX2                !
 ! R10   R(6,10)                 1.4966         estimate D2E/DX2                !
 ! R11   R(6,58)                 2.353          estimate D2E/DX2                !
 ! R12   R(7,11)                 1.4954         estimate D2E/DX2                !
 ! R13   R(7,58)                 2.3318         estimate D2E/DX2                !
 ! R14   R(8,9)                  1.4874         estimate D2E/DX2                !
 ! R15   R(8,58)                 2.4285         estimate D2E/DX2                !
 ! R16   R(9,12)                 1.4962         estimate D2E/DX2                !
 ! R17   R(9,13)                 1.4411         estimate D2E/DX2                !
 ! R18   R(9,20)                 1.8511         estimate D2E/DX2                !
 ! R19   R(9,58)                 2.9524         estimate D2E/DX2                !
 ! R20   R(10,14)                1.4897         estimate D2E/DX2                !
 ! R21   R(10,15)                1.4395         estimate D2E/DX2                !
 ! R22   R(10,19)                1.838          estimate D2E/DX2                !
 ! R23   R(10,58)                2.9577         estimate D2E/DX2                !
 ! R24   R(11,16)                1.4883         estimate D2E/DX2                !
 ! R25   R(11,17)                1.4445         estimate D2E/DX2                !
 ! R26   R(11,18)                1.8691         estimate D2E/DX2                !
 ! R27   R(11,58)                2.9613         estimate D2E/DX2                !
 ! R28   R(12,58)                2.3287         estimate D2E/DX2                !
 ! R29   R(14,58)                2.3972         estimate D2E/DX2                !
 ! R30   R(16,58)                2.4371         estimate D2E/DX2                !
 ! R31   R(18,21)                1.3185         estimate D2E/DX2                !
 ! R32   R(18,22)                1.3182         estimate D2E/DX2                !
 ! R33   R(18,23)                1.3207         estimate D2E/DX2                !
 ! R34   R(19,24)                1.3231         estimate D2E/DX2                !
 ! R35   R(19,25)                1.32           estimate D2E/DX2                !
 ! R36   R(19,26)                1.3197         estimate D2E/DX2                !
 ! R37   R(20,27)                1.3223         estimate D2E/DX2                !
 ! R38   R(20,28)                1.3196         estimate D2E/DX2                !
 ! R39   R(20,29)                1.3227         estimate D2E/DX2                !
 ! R40   R(30,31)                1.5888         estimate D2E/DX2                !
 ! R41   R(30,46)                1.1034         estimate D2E/DX2                !
 ! R42   R(30,47)                1.5264         estimate D2E/DX2                !
 ! R43   R(30,59)                1.4082         estimate D2E/DX2                !
 ! R44   R(31,32)                1.4763         estimate D2E/DX2                !
 ! R45   R(31,33)                1.4761         estimate D2E/DX2                !
 ! R46   R(31,42)                1.4982         estimate D2E/DX2                !
 ! R47   R(32,40)                1.1562         estimate D2E/DX2                !
 ! R48   R(33,41)                1.1561         estimate D2E/DX2                !
 ! R49   R(34,36)                1.3842         estimate D2E/DX2                !
 ! R50   R(34,37)                1.088          estimate D2E/DX2                !
 ! R51   R(34,44)                1.3945         estimate D2E/DX2                !
 ! R52   R(35,36)                1.4101         estimate D2E/DX2                !
 ! R53   R(35,38)                1.0898         estimate D2E/DX2                !
 ! R54   R(35,43)                1.3187         estimate D2E/DX2                !
 ! R55   R(36,39)                1.0931         estimate D2E/DX2                !
 ! R56   R(42,43)                1.3162         estimate D2E/DX2                !
 ! R57   R(42,44)                1.3394         estimate D2E/DX2                !
 ! R58   R(44,45)                1.0925         estimate D2E/DX2                !
 ! R59   R(47,48)                1.4057         estimate D2E/DX2                !
 ! R60   R(47,49)                1.3977         estimate D2E/DX2                !
 ! R61   R(48,50)                1.3919         estimate D2E/DX2                !
 ! R62   R(48,51)                1.0933         estimate D2E/DX2                !
 ! R63   R(49,52)                1.3993         estimate D2E/DX2                !
 ! R64   R(49,53)                1.0888         estimate D2E/DX2                !
 ! R65   R(50,54)                1.3984         estimate D2E/DX2                !
 ! R66   R(50,55)                1.092          estimate D2E/DX2                !
 ! R67   R(52,54)                1.3939         estimate D2E/DX2                !
 ! R68   R(52,56)                1.0921         estimate D2E/DX2                !
 ! R69   R(54,57)                1.0921         estimate D2E/DX2                !
 ! R70   R(60,61)                1.096          estimate D2E/DX2                !
 ! R71   R(60,62)                1.1012         estimate D2E/DX2                !
 ! R72   R(60,63)                1.0918         estimate D2E/DX2                !
 ! R73   R(64,65)                1.0973         estimate D2E/DX2                !
 ! R74   R(64,66)                1.0969         estimate D2E/DX2                !
 ! R75   R(64,67)                1.0954         estimate D2E/DX2                !
 ! A1    A(2,1,3)              122.2511         estimate D2E/DX2                !
 ! A2    A(2,1,59)             121.4095         estimate D2E/DX2                !
 ! A3    A(3,1,59)             115.0524         estimate D2E/DX2                !
 ! A4    A(1,2,5)              122.2149         estimate D2E/DX2                !
 ! A5    A(1,2,64)             120.7616         estimate D2E/DX2                !
 ! A6    A(5,2,64)             117.0123         estimate D2E/DX2                !
 ! A7    A(1,3,4)              123.0172         estimate D2E/DX2                !
 ! A8    A(1,3,60)             120.4843         estimate D2E/DX2                !
 ! A9    A(4,3,60)             116.4957         estimate D2E/DX2                !
 ! A10   A(3,4,58)             132.4481         estimate D2E/DX2                !
 ! A11   A(2,5,58)             131.5307         estimate D2E/DX2                !
 ! A12   A(8,9,12)             106.2141         estimate D2E/DX2                !
 ! A13   A(8,9,13)             118.0866         estimate D2E/DX2                !
 ! A14   A(8,9,20)             104.3911         estimate D2E/DX2                !
 ! A15   A(12,9,13)            117.6861         estimate D2E/DX2                !
 ! A16   A(12,9,20)            103.1884         estimate D2E/DX2                !
 ! A17   A(13,9,20)            105.4213         estimate D2E/DX2                !
 ! A18   A(13,9,58)            138.9595         estimate D2E/DX2                !
 ! A19   A(20,9,58)            115.522          estimate D2E/DX2                !
 ! A20   A(6,10,14)            105.4186         estimate D2E/DX2                !
 ! A21   A(6,10,15)            117.7414         estimate D2E/DX2                !
 ! A22   A(6,10,19)            102.8423         estimate D2E/DX2                !
 ! A23   A(14,10,15)           118.3696         estimate D2E/DX2                !
 ! A24   A(14,10,19)           103.7306         estimate D2E/DX2                !
 ! A25   A(15,10,19)           106.7801         estimate D2E/DX2                !
 ! A26   A(15,10,58)           145.1924         estimate D2E/DX2                !
 ! A27   A(19,10,58)           107.9924         estimate D2E/DX2                !
 ! A28   A(7,11,16)            106.0474         estimate D2E/DX2                !
 ! A29   A(7,11,17)            117.3026         estimate D2E/DX2                !
 ! A30   A(7,11,18)            104.041          estimate D2E/DX2                !
 ! A31   A(16,11,17)           116.8856         estimate D2E/DX2                !
 ! A32   A(16,11,18)           105.8508         estimate D2E/DX2                !
 ! A33   A(17,11,18)           105.3903         estimate D2E/DX2                !
 ! A34   A(17,11,58)           141.7074         estimate D2E/DX2                !
 ! A35   A(18,11,58)           112.81           estimate D2E/DX2                !
 ! A36   A(11,18,21)           109.3649         estimate D2E/DX2                !
 ! A37   A(11,18,22)           110.6487         estimate D2E/DX2                !
 ! A38   A(11,18,23)           108.4863         estimate D2E/DX2                !
 ! A39   A(21,18,22)           109.8085         estimate D2E/DX2                !
 ! A40   A(21,18,23)           109.4421         estimate D2E/DX2                !
 ! A41   A(22,18,23)           109.0646         estimate D2E/DX2                !
 ! A42   A(10,19,24)           108.676          estimate D2E/DX2                !
 ! A43   A(10,19,25)           109.5771         estimate D2E/DX2                !
 ! A44   A(10,19,26)           109.6894         estimate D2E/DX2                !
 ! A45   A(24,19,25)           109.6013         estimate D2E/DX2                !
 ! A46   A(24,19,26)           109.602          estimate D2E/DX2                !
 ! A47   A(25,19,26)           109.6775         estimate D2E/DX2                !
 ! A48   A(9,20,27)            109.9468         estimate D2E/DX2                !
 ! A49   A(9,20,28)            109.4861         estimate D2E/DX2                !
 ! A50   A(9,20,29)            109.4464         estimate D2E/DX2                !
 ! A51   A(27,20,28)           109.2182         estimate D2E/DX2                !
 ! A52   A(27,20,29)           109.2554         estimate D2E/DX2                !
 ! A53   A(28,20,29)           109.4735         estimate D2E/DX2                !
 ! A54   A(31,30,46)           100.1867         estimate D2E/DX2                !
 ! A55   A(31,30,47)           119.664          estimate D2E/DX2                !
 ! A56   A(31,30,59)           114.5794         estimate D2E/DX2                !
 ! A57   A(46,30,47)           103.7791         estimate D2E/DX2                !
 ! A58   A(46,30,59)           103.565          estimate D2E/DX2                !
 ! A59   A(47,30,59)           112.1198         estimate D2E/DX2                !
 ! A60   A(30,31,32)           110.371          estimate D2E/DX2                !
 ! A61   A(30,31,33)           107.0942         estimate D2E/DX2                !
 ! A62   A(30,31,42)           114.4752         estimate D2E/DX2                !
 ! A63   A(32,31,33)           106.3508         estimate D2E/DX2                !
 ! A64   A(32,31,42)           108.7867         estimate D2E/DX2                !
 ! A65   A(33,31,42)           109.4443         estimate D2E/DX2                !
 ! A66   A(36,34,37)           122.5118         estimate D2E/DX2                !
 ! A67   A(36,34,44)           117.7547         estimate D2E/DX2                !
 ! A68   A(37,34,44)           119.7193         estimate D2E/DX2                !
 ! A69   A(36,35,38)           121.8576         estimate D2E/DX2                !
 ! A70   A(36,35,43)           122.4116         estimate D2E/DX2                !
 ! A71   A(38,35,43)           115.7235         estimate D2E/DX2                !
 ! A72   A(34,36,35)           117.9508         estimate D2E/DX2                !
 ! A73   A(34,36,39)           121.6602         estimate D2E/DX2                !
 ! A74   A(35,36,39)           120.3889         estimate D2E/DX2                !
 ! A75   A(31,42,43)           113.2305         estimate D2E/DX2                !
 ! A76   A(31,42,44)           122.0866         estimate D2E/DX2                !
 ! A77   A(43,42,44)           124.4535         estimate D2E/DX2                !
 ! A78   A(35,43,42)           118.0653         estimate D2E/DX2                !
 ! A79   A(34,44,42)           119.2439         estimate D2E/DX2                !
 ! A80   A(34,44,45)           122.4976         estimate D2E/DX2                !
 ! A81   A(42,44,45)           118.2572         estimate D2E/DX2                !
 ! A82   A(30,47,48)           112.4705         estimate D2E/DX2                !
 ! A83   A(30,47,49)           128.6184         estimate D2E/DX2                !
 ! A84   A(48,47,49)           118.9004         estimate D2E/DX2                !
 ! A85   A(47,48,50)           120.9496         estimate D2E/DX2                !
 ! A86   A(47,48,51)           119.2155         estimate D2E/DX2                !
 ! A87   A(50,48,51)           119.8235         estimate D2E/DX2                !
 ! A88   A(47,49,52)           120.0655         estimate D2E/DX2                !
 ! A89   A(47,49,53)           121.3157         estimate D2E/DX2                !
 ! A90   A(52,49,53)           118.5958         estimate D2E/DX2                !
 ! A91   A(48,50,54)           119.8377         estimate D2E/DX2                !
 ! A92   A(48,50,55)           119.8537         estimate D2E/DX2                !
 ! A93   A(54,50,55)           120.3071         estimate D2E/DX2                !
 ! A94   A(49,52,54)           120.6743         estimate D2E/DX2                !
 ! A95   A(49,52,56)           119.1832         estimate D2E/DX2                !
 ! A96   A(54,52,56)           120.141          estimate D2E/DX2                !
 ! A97   A(50,54,52)           119.5465         estimate D2E/DX2                !
 ! A98   A(50,54,57)           120.262          estimate D2E/DX2                !
 ! A99   A(52,54,57)           120.189          estimate D2E/DX2                !
 ! A100  A(4,58,5)              75.5986         estimate D2E/DX2                !
 ! A101  A(4,58,6)              91.1148         estimate D2E/DX2                !
 ! A102  A(4,58,7)             144.7704         estimate D2E/DX2                !
 ! A103  A(4,58,8)              77.937          estimate D2E/DX2                !
 ! A104  A(4,58,9)             107.8993         estimate D2E/DX2                !
 ! A105  A(4,58,10)             90.8719         estimate D2E/DX2                !
 ! A106  A(4,58,11)            115.6536         estimate D2E/DX2                !
 ! A107  A(4,58,12)            137.901          estimate D2E/DX2                !
 ! A108  A(4,58,14)             87.1393         estimate D2E/DX2                !
 ! A109  A(4,58,16)             85.7949         estimate D2E/DX2                !
 ! A110  A(5,58,6)             148.4181         estimate D2E/DX2                !
 ! A111  A(5,58,7)              89.7283         estimate D2E/DX2                !
 ! A112  A(5,58,8)              74.6479         estimate D2E/DX2                !
 ! A113  A(5,58,9)              85.4429         estimate D2E/DX2                !
 ! A114  A(5,58,11)             85.311          estimate D2E/DX2                !
 ! A115  A(5,58,12)             95.7608         estimate D2E/DX2                !
 ! A116  A(5,58,14)            144.8427         estimate D2E/DX2                !
 ! A117  A(5,58,16)             80.2257         estimate D2E/DX2                !
 ! A118  A(6,58,7)              84.9726         estimate D2E/DX2                !
 ! A119  A(6,58,8)             131.1432         estimate D2E/DX2                !
 ! A120  A(6,58,9)             126.1041         estimate D2E/DX2                !
 ! A121  A(6,58,11)             74.7045         estimate D2E/DX2                !
 ! A122  A(6,58,12)            112.5621         estimate D2E/DX2                !
 ! A123  A(6,58,14)             60.0116         estimate D2E/DX2                !
 ! A124  A(6,58,16)             70.1814         estimate D2E/DX2                !
 ! A125  A(7,58,8)             129.3299         estimate D2E/DX2                !
 ! A126  A(7,58,9)             102.5078         estimate D2E/DX2                !
 ! A127  A(7,58,10)            102.2593         estimate D2E/DX2                !
 ! A128  A(7,58,12)             74.4065         estimate D2E/DX2                !
 ! A129  A(7,58,14)            119.9603         estimate D2E/DX2                !
 ! A130  A(7,58,16)             59.9296         estimate D2E/DX2                !
 ! A131  A(8,58,10)            101.8102         estimate D2E/DX2                !
 ! A132  A(8,58,11)            152.3809         estimate D2E/DX2                !
 ! A133  A(8,58,12)             60.1661         estimate D2E/DX2                !
 ! A134  A(8,58,14)             71.876          estimate D2E/DX2                !
 ! A135  A(8,58,16)            152.7357         estimate D2E/DX2                !
 ! A136  A(9,58,10)             97.9549         estimate D2E/DX2                !
 ! A137  A(9,58,11)            131.3582         estimate D2E/DX2                !
 ! A138  A(9,58,14)             70.858          estimate D2E/DX2                !
 ! A139  A(9,58,16)            157.0931         estimate D2E/DX2                !
 ! A140  A(10,58,11)           101.8678         estimate D2E/DX2                !
 ! A141  A(10,58,12)            93.6086         estimate D2E/DX2                !
 ! A142  A(10,58,16)           100.1511         estimate D2E/DX2                !
 ! A143  A(11,58,12)           104.2844         estimate D2E/DX2                !
 ! A144  A(11,58,14)           129.8397         estimate D2E/DX2                !
 ! A145  A(12,58,14)            76.7294         estimate D2E/DX2                !
 ! A146  A(12,58,16)           134.0729         estimate D2E/DX2                !
 ! A147  A(14,58,16)           129.4736         estimate D2E/DX2                !
 ! A148  A(1,59,30)            130.0564         estimate D2E/DX2                !
 ! A149  A(3,60,61)            113.5361         estimate D2E/DX2                !
 ! A150  A(3,60,62)            109.4447         estimate D2E/DX2                !
 ! A151  A(3,60,63)            107.8995         estimate D2E/DX2                !
 ! A152  A(61,60,62)           108.3605         estimate D2E/DX2                !
 ! A153  A(61,60,63)           110.7868         estimate D2E/DX2                !
 ! A154  A(62,60,63)           106.5833         estimate D2E/DX2                !
 ! A155  A(2,64,65)            111.1364         estimate D2E/DX2                !
 ! A156  A(2,64,66)            110.5773         estimate D2E/DX2                !
 ! A157  A(2,64,67)            108.7257         estimate D2E/DX2                !
 ! A158  A(65,64,66)           107.0954         estimate D2E/DX2                !
 ! A159  A(65,64,67)           108.7241         estimate D2E/DX2                !
 ! A160  A(66,64,67)           110.5659         estimate D2E/DX2                !
 ! A161  L(31,32,40,38,-1)     182.3202         estimate D2E/DX2                !
 ! A162  L(31,33,41,3,-1)      182.2139         estimate D2E/DX2                !
 ! A163  L(5,58,10,4,-1)       166.4705         estimate D2E/DX2                !
 ! A164  L(31,32,40,38,-2)     179.2647         estimate D2E/DX2                !
 ! A165  L(31,33,41,3,-2)      177.9009         estimate D2E/DX2                !
 ! A166  L(5,58,10,4,-2)       181.0897         estimate D2E/DX2                !
 ! D1    D(3,1,2,5)             12.2061         estimate D2E/DX2                !
 ! D2    D(3,1,2,64)          -166.5434         estimate D2E/DX2                !
 ! D3    D(59,1,2,5)           178.6055         estimate D2E/DX2                !
 ! D4    D(59,1,2,64)           -0.144          estimate D2E/DX2                !
 ! D5    D(2,1,3,4)             -9.579          estimate D2E/DX2                !
 ! D6    D(2,1,3,60)           169.7948         estimate D2E/DX2                !
 ! D7    D(59,1,3,4)          -176.7797         estimate D2E/DX2                !
 ! D8    D(59,1,3,60)            2.5941         estimate D2E/DX2                !
 ! D9    D(2,1,59,30)           74.3362         estimate D2E/DX2                !
 ! D10   D(3,1,59,30)         -118.345          estimate D2E/DX2                !
 ! D11   D(1,2,5,58)           -34.5532         estimate D2E/DX2                !
 ! D12   D(64,2,5,58)          144.2407         estimate D2E/DX2                !
 ! D13   D(1,2,64,65)          -76.4252         estimate D2E/DX2                !
 ! D14   D(1,2,64,66)           42.3768         estimate D2E/DX2                !
 ! D15   D(1,2,64,67)          163.9413         estimate D2E/DX2                !
 ! D16   D(5,2,64,65)          104.7623         estimate D2E/DX2                !
 ! D17   D(5,2,64,66)         -136.4357         estimate D2E/DX2                !
 ! D18   D(5,2,64,67)          -14.8712         estimate D2E/DX2                !
 ! D19   D(1,3,4,58)            29.4488         estimate D2E/DX2                !
 ! D20   D(60,3,4,58)         -149.9482         estimate D2E/DX2                !
 ! D21   D(1,3,60,61)          -16.8844         estimate D2E/DX2                !
 ! D22   D(1,3,60,62)          104.3222         estimate D2E/DX2                !
 ! D23   D(1,3,60,63)         -140.0774         estimate D2E/DX2                !
 ! D24   D(4,3,60,61)          162.5289         estimate D2E/DX2                !
 ! D25   D(4,3,60,62)          -76.2645         estimate D2E/DX2                !
 ! D26   D(4,3,60,63)           39.3359         estimate D2E/DX2                !
 ! D27   D(3,4,58,5)           -33.3376         estimate D2E/DX2                !
 ! D28   D(3,4,58,6)           175.653          estimate D2E/DX2                !
 ! D29   D(3,4,58,7)          -101.4923         estimate D2E/DX2                !
 ! D30   D(3,4,58,8)            43.681          estimate D2E/DX2                !
 ! D31   D(3,4,58,9)            46.9247         estimate D2E/DX2                !
 ! D32   D(3,4,58,10)          145.5728         estimate D2E/DX2                !
 ! D33   D(3,4,58,11)         -110.8074         estimate D2E/DX2                !
 ! D34   D(3,4,58,12)           49.2149         estimate D2E/DX2                !
 ! D35   D(3,4,58,14)          115.7533         estimate D2E/DX2                !
 ! D36   D(3,4,58,16)         -114.3124         estimate D2E/DX2                !
 ! D37   D(2,5,58,4)            35.9311         estimate D2E/DX2                !
 ! D38   D(2,5,58,6)           103.6386         estimate D2E/DX2                !
 ! D39   D(2,5,58,7)          -176.4425         estimate D2E/DX2                !
 ! D40   D(2,5,58,8)           -45.2534         estimate D2E/DX2                !
 ! D41   D(2,5,58,9)           -73.872          estimate D2E/DX2                !
 ! D42   D(2,5,58,11)          153.9354         estimate D2E/DX2                !
 ! D43   D(2,5,58,12)         -102.1458         estimate D2E/DX2                !
 ! D44   D(2,5,58,14)          -27.0635         estimate D2E/DX2                !
 ! D45   D(2,5,58,16)          124.0638         estimate D2E/DX2                !
 ! D46   D(8,9,20,27)          -80.8435         estimate D2E/DX2                !
 ! D47   D(8,9,20,28)          159.1654         estimate D2E/DX2                !
 ! D48   D(8,9,20,29)           39.1687         estimate D2E/DX2                !
 ! D49   D(12,9,20,27)          30.0241         estimate D2E/DX2                !
 ! D50   D(12,9,20,28)         -89.967          estimate D2E/DX2                !
 ! D51   D(12,9,20,29)         150.0363         estimate D2E/DX2                !
 ! D52   D(13,9,20,27)         154.0576         estimate D2E/DX2                !
 ! D53   D(13,9,20,28)          34.0665         estimate D2E/DX2                !
 ! D54   D(13,9,20,29)         -85.9302         estimate D2E/DX2                !
 ! D55   D(58,9,20,27)         -23.0449         estimate D2E/DX2                !
 ! D56   D(58,9,20,28)        -143.036          estimate D2E/DX2                !
 ! D57   D(58,9,20,29)          96.9674         estimate D2E/DX2                !
 ! D58   D(13,9,58,4)           87.7959         estimate D2E/DX2                !
 ! D59   D(13,9,58,5)          161.0614         estimate D2E/DX2                !
 ! D60   D(13,9,58,6)          -17.3252         estimate D2E/DX2                !
 ! D61   D(13,9,58,7)         -110.231          estimate D2E/DX2                !
 ! D62   D(13,9,58,10)          -5.7173         estimate D2E/DX2                !
 ! D63   D(13,9,58,11)        -119.2746         estimate D2E/DX2                !
 ! D64   D(13,9,58,14)           7.4455         estimate D2E/DX2                !
 ! D65   D(13,9,58,16)        -147.7064         estimate D2E/DX2                !
 ! D66   D(20,9,58,4)          -96.4604         estimate D2E/DX2                !
 ! D67   D(20,9,58,5)          -23.1948         estimate D2E/DX2                !
 ! D68   D(20,9,58,6)          158.4185         estimate D2E/DX2                !
 ! D69   D(20,9,58,7)           65.5128         estimate D2E/DX2                !
 ! D70   D(20,9,58,10)         170.0264         estimate D2E/DX2                !
 ! D71   D(20,9,58,11)          56.4691         estimate D2E/DX2                !
 ! D72   D(20,9,58,14)        -176.8107         estimate D2E/DX2                !
 ! D73   D(20,9,58,16)          28.0374         estimate D2E/DX2                !
 ! D74   D(6,10,19,24)          56.1252         estimate D2E/DX2                !
 ! D75   D(6,10,19,25)         -63.6142         estimate D2E/DX2                !
 ! D76   D(6,10,19,26)         175.9321         estimate D2E/DX2                !
 ! D77   D(14,10,19,24)        -53.5333         estimate D2E/DX2                !
 ! D78   D(14,10,19,25)       -173.2728         estimate D2E/DX2                !
 ! D79   D(14,10,19,26)         66.2736         estimate D2E/DX2                !
 ! D80   D(15,10,19,24)       -179.3057         estimate D2E/DX2                !
 ! D81   D(15,10,19,25)         60.9548         estimate D2E/DX2                !
 ! D82   D(15,10,19,26)        -59.4988         estimate D2E/DX2                !
 ! D83   D(58,10,19,24)          2.2819         estimate D2E/DX2                !
 ! D84   D(58,10,19,25)       -117.4576         estimate D2E/DX2                !
 ! D85   D(58,10,19,26)        122.0888         estimate D2E/DX2                !
 ! D86   D(15,10,58,4)           5.8346         estimate D2E/DX2                !
 ! D87   D(15,10,58,7)        -141.2329         estimate D2E/DX2                !
 ! D88   D(15,10,58,8)          83.6917         estimate D2E/DX2                !
 ! D89   D(15,10,58,9)         114.0442         estimate D2E/DX2                !
 ! D90   D(15,10,58,11)       -110.6294         estimate D2E/DX2                !
 ! D91   D(15,10,58,12)        143.9514         estimate D2E/DX2                !
 ! D92   D(15,10,58,16)        -80.0494         estimate D2E/DX2                !
 ! D93   D(19,10,58,4)        -176.8289         estimate D2E/DX2                !
 ! D94   D(19,10,58,7)          36.1036         estimate D2E/DX2                !
 ! D95   D(19,10,58,8)         -98.9717         estimate D2E/DX2                !
 ! D96   D(19,10,58,9)         -68.6192         estimate D2E/DX2                !
 ! D97   D(19,10,58,11)         66.7072         estimate D2E/DX2                !
 ! D98   D(19,10,58,12)        -38.712          estimate D2E/DX2                !
 ! D99   D(19,10,58,16)         97.2872         estimate D2E/DX2                !
 ! D100  D(7,11,18,21)         132.1175         estimate D2E/DX2                !
 ! D101  D(7,11,18,22)          11.0326         estimate D2E/DX2                !
 ! D102  D(7,11,18,23)        -108.5738         estimate D2E/DX2                !
 ! D103  D(16,11,18,21)         20.5735         estimate D2E/DX2                !
 ! D104  D(16,11,18,22)       -100.5113         estimate D2E/DX2                !
 ! D105  D(16,11,18,23)        139.8822         estimate D2E/DX2                !
 ! D106  D(17,11,18,21)       -103.8791         estimate D2E/DX2                !
 ! D107  D(17,11,18,22)        135.0361         estimate D2E/DX2                !
 ! D108  D(17,11,18,23)         15.4296         estimate D2E/DX2                !
 ! D109  D(58,11,18,21)         78.8361         estimate D2E/DX2                !
 ! D110  D(58,11,18,22)        -42.2488         estimate D2E/DX2                !
 ! D111  D(58,11,18,23)       -161.8552         estimate D2E/DX2                !
 ! D112  D(17,11,58,4)          83.3458         estimate D2E/DX2                !
 ! D113  D(17,11,58,5)          11.7809         estimate D2E/DX2                !
 ! D114  D(17,11,58,6)         167.0898         estimate D2E/DX2                !
 ! D115  D(17,11,58,8)         -31.3521         estimate D2E/DX2                !
 ! D116  D(17,11,58,9)         -67.9417         estimate D2E/DX2                !
 ! D117  D(17,11,58,10)       -179.8673         estimate D2E/DX2                !
 ! D118  D(17,11,58,12)        -82.9826         estimate D2E/DX2                !
 ! D119  D(17,11,58,14)       -167.47           estimate D2E/DX2                !
 ! D120  D(18,11,58,4)        -100.8809         estimate D2E/DX2                !
 ! D121  D(18,11,58,5)        -172.4459         estimate D2E/DX2                !
 ! D122  D(18,11,58,6)         -17.1369         estimate D2E/DX2                !
 ! D123  D(18,11,58,8)         144.4212         estimate D2E/DX2                !
 ! D124  D(18,11,58,9)         107.8316         estimate D2E/DX2                !
 ! D125  D(18,11,58,10)         -4.094          estimate D2E/DX2                !
 ! D126  D(18,11,58,12)         92.7907         estimate D2E/DX2                !
 ! D127  D(18,11,58,14)          8.3032         estimate D2E/DX2                !
 ! D128  D(46,30,31,32)         75.6348         estimate D2E/DX2                !
 ! D129  D(46,30,31,33)        -39.7294         estimate D2E/DX2                !
 ! D130  D(46,30,31,42)       -161.2396         estimate D2E/DX2                !
 ! D131  D(47,30,31,32)        -36.7506         estimate D2E/DX2                !
 ! D132  D(47,30,31,33)       -152.1148         estimate D2E/DX2                !
 ! D133  D(47,30,31,42)         86.375          estimate D2E/DX2                !
 ! D134  D(59,30,31,32)       -174.2298         estimate D2E/DX2                !
 ! D135  D(59,30,31,33)         70.406          estimate D2E/DX2                !
 ! D136  D(59,30,31,42)        -51.1042         estimate D2E/DX2                !
 ! D137  D(31,30,47,48)        165.1852         estimate D2E/DX2                !
 ! D138  D(31,30,47,49)        -16.0299         estimate D2E/DX2                !
 ! D139  D(46,30,47,48)         54.7445         estimate D2E/DX2                !
 ! D140  D(46,30,47,49)       -126.4706         estimate D2E/DX2                !
 ! D141  D(59,30,47,48)        -56.3781         estimate D2E/DX2                !
 ! D142  D(59,30,47,49)        122.4068         estimate D2E/DX2                !
 ! D143  D(31,30,59,1)          42.2728         estimate D2E/DX2                !
 ! D144  D(46,30,59,1)         150.3574         estimate D2E/DX2                !
 ! D145  D(47,30,59,1)         -98.3857         estimate D2E/DX2                !
 ! D146  D(30,31,42,43)        -74.3587         estimate D2E/DX2                !
 ! D147  D(30,31,42,44)        100.3676         estimate D2E/DX2                !
 ! D148  D(32,31,42,43)         49.6166         estimate D2E/DX2                !
 ! D149  D(32,31,42,44)       -135.6571         estimate D2E/DX2                !
 ! D150  D(33,31,42,43)        165.4295         estimate D2E/DX2                !
 ! D151  D(33,31,42,44)        -19.8442         estimate D2E/DX2                !
 ! D152  D(37,34,36,35)        178.4071         estimate D2E/DX2                !
 ! D153  D(37,34,36,39)         -1.6503         estimate D2E/DX2                !
 ! D154  D(44,34,36,35)         -2.9691         estimate D2E/DX2                !
 ! D155  D(44,34,36,39)        176.9735         estimate D2E/DX2                !
 ! D156  D(36,34,44,42)          0.2579         estimate D2E/DX2                !
 ! D157  D(36,34,44,45)       -179.3208         estimate D2E/DX2                !
 ! D158  D(37,34,44,42)        178.9217         estimate D2E/DX2                !
 ! D159  D(37,34,44,45)         -0.6571         estimate D2E/DX2                !
 ! D160  D(38,35,36,34)       -177.6749         estimate D2E/DX2                !
 ! D161  D(38,35,36,39)          2.3818         estimate D2E/DX2                !
 ! D162  D(43,35,36,34)          3.351          estimate D2E/DX2                !
 ! D163  D(43,35,36,39)       -176.5923         estimate D2E/DX2                !
 ! D164  D(36,35,43,42)         -0.7498         estimate D2E/DX2                !
 ! D165  D(38,35,43,42)       -179.7825         estimate D2E/DX2                !
 ! D166  D(31,42,43,35)        172.2861         estimate D2E/DX2                !
 ! D167  D(44,42,43,35)         -2.2948         estimate D2E/DX2                !
 ! D168  D(31,42,44,34)       -171.5709         estimate D2E/DX2                !
 ! D169  D(31,42,44,45)          8.0257         estimate D2E/DX2                !
 ! D170  D(43,42,44,34)          2.55           estimate D2E/DX2                !
 ! D171  D(43,42,44,45)       -177.8533         estimate D2E/DX2                !
 ! D172  D(30,47,48,50)        177.0812         estimate D2E/DX2                !
 ! D173  D(30,47,48,51)         -1.6895         estimate D2E/DX2                !
 ! D174  D(49,47,48,50)         -1.8343         estimate D2E/DX2                !
 ! D175  D(49,47,48,51)        179.3949         estimate D2E/DX2                !
 ! D176  D(30,47,49,52)       -177.3367         estimate D2E/DX2                !
 ! D177  D(30,47,49,53)          0.8933         estimate D2E/DX2                !
 ! D178  D(48,47,49,52)          1.3807         estimate D2E/DX2                !
 ! D179  D(48,47,49,53)        179.6107         estimate D2E/DX2                !
 ! D180  D(47,48,50,54)          0.8932         estimate D2E/DX2                !
 ! D181  D(47,48,50,55)       -179.5421         estimate D2E/DX2                !
 ! D182  D(51,48,50,54)        179.6565         estimate D2E/DX2                !
 ! D183  D(51,48,50,55)         -0.7787         estimate D2E/DX2                !
 ! D184  D(47,49,52,54)         -0.0049         estimate D2E/DX2                !
 ! D185  D(47,49,52,56)        179.5592         estimate D2E/DX2                !
 ! D186  D(53,49,52,54)       -178.2827         estimate D2E/DX2                !
 ! D187  D(53,49,52,56)          1.2814         estimate D2E/DX2                !
 ! D188  D(48,50,54,52)          0.5089         estimate D2E/DX2                !
 ! D189  D(48,50,54,57)        179.9321         estimate D2E/DX2                !
 ! D190  D(55,50,54,52)       -179.0538         estimate D2E/DX2                !
 ! D191  D(55,50,54,57)          0.3694         estimate D2E/DX2                !
 ! D192  D(49,52,54,50)         -0.9533         estimate D2E/DX2                !
 ! D193  D(49,52,54,57)        179.6231         estimate D2E/DX2                !
 ! D194  D(56,52,54,50)        179.4868         estimate D2E/DX2                !
 ! D195  D(56,52,54,57)          0.0631         estimate D2E/DX2                !
 --------------------------------------------------------------------------------
 Trust Radius=3.00D-01 FncErr=1.00D-07 GrdErr=1.00D-06 EigMax=2.50D+02 EigMin=1.00D-04
 Number of steps in this run=    402 maximum allowed number of steps=    402.
 GradGradGradGradGradGradGradGradGradGradGradGradGradGradGradGradGradGrad

 Leave Link  103 at Sun May  4 11:11:16 2025, MaxMem= 82678120448 cpu:               0.6 elap:               0.0
 (Enter /sysapps/ubuntu-applications/gaussian-new/avx/g16/l202.exe)
 Stoichiometry    C22H16F9LuN4O12S3
 Framework group  C1[X(C22H16F9LuN4O12S3)]
 Deg. of freedom   195
 Full point group                 C1      NOp   1
 Largest Abelian subgroup         C1      NOp   1
 Largest concise Abelian subgroup C1      NOp   1
                         Standard orientation:                         
 ---------------------------------------------------------------------
 Center     Atomic      Atomic             Coordinates (Angstroms)
 Number     Number       Type             X           Y           Z
 ---------------------------------------------------------------------
      1          6           0       -2.148131    0.114289    0.945670
      2          6           0       -1.766670    0.427669   -0.387979
      3          6           0       -1.204572   -0.286234    1.930152
      4          8           0        0.007070   -0.564366    1.656958
      5          8           0       -0.609329    0.154945   -0.845185
      6          8           0        3.134806   -1.103070    1.028282
      7          8           0        2.339298   -0.372474   -1.945874
      8          8           0        0.309232    2.203558    0.838992
      9         16           0        1.171293    3.085367    0.007349
     10         16           0        3.657541   -0.057426    1.962746
     11         16           0        2.082271   -1.845458   -1.966832
     12          8           0        2.064402    2.176953   -0.777266
     13          8           0        1.771041    4.235556    0.635142
     14          8           0        2.694956    1.075572    1.867747
     15          8           0        4.088242   -0.481289    3.269238
     16          8           0        1.295722   -2.143356   -0.738955
     17          8           0        1.603357   -2.416965   -3.204065
     18          6           0        3.767976   -2.603919   -1.689821
     19          6           0        5.149856    0.563414    1.087548
     20          6           0        0.027388    3.766961   -1.278530
     21          9           0        3.682054   -3.531466   -0.756767
     22          9           0        4.637901   -1.682963   -1.325424
     23          9           0        4.170598   -3.154158   -2.820909
     24          9           0        4.792673    0.978283   -0.116983
     25          9           0        6.034380   -0.410001    0.976388
     26          9           0        5.676315    1.567179    1.763471
     27          9           0       -0.140169    2.882890   -2.247474
     28          9           0        0.541348    4.872589   -1.783394
     29          9           0       -1.144152    4.037060   -0.727098
     30          6           0       -4.665227   -0.137429    1.180135
     31          6           0       -4.661416   -1.725906    1.147854
     32          6           0       -5.984899   -2.234731    0.736840
     33          6           0       -4.450881   -2.187554    2.534018
     34          6           0       -1.461806   -3.196060   -0.148514
     35          6           0       -2.977771   -2.574420   -1.894886
     36          6           0       -1.707500   -3.044296   -1.502276
     37          1           0       -0.517689   -3.576769    0.235365
     38          1           0       -3.252259   -2.466831   -2.944094
     39          1           0       -0.947848   -3.277352   -2.252928
     40          7           0       -7.032929   -2.638396    0.462180
     41          7           0       -4.343835   -2.534195    3.631756
     42          7           0       -3.616153   -2.326136    0.258111
     43          7           0       -3.900648   -2.219071   -1.022470
     44          6           0       -2.465849   -2.813906    0.740556
     45          1           0       -2.350398   -2.889986    1.824281
     46          1           0       -5.228105    0.037444    2.112887
     47          6           0       -5.454561    0.637633    0.128438
     48          6           0       -5.633238    1.987462    0.477576
     49          6           0       -5.969280    0.180717   -1.088076
     50          6           0       -6.276881    2.870646   -0.384418
     51          1           0       -5.241445    2.348041    1.432423
     52          6           0       -6.624179    1.067760   -1.949584
     53          1           0       -5.848077   -0.855285   -1.400469
     54          6           0       -6.771771    2.411296   -1.608989
     55          1           0       -6.399357    3.917337   -0.098272
     56          1           0       -7.014419    0.696836   -2.899779
     57          1           0       -7.278910    3.098002   -2.290123
     58         71           0        1.362072    0.140830    0.108081
     59          8           0       -3.409788    0.446224    1.437603
     60          6           0       -1.605701   -0.387059    3.372443
     61          1           0       -2.538763    0.138744    3.604987
     62          1           0       -1.727315   -1.446842    3.645906
     63          1           0       -0.782633   -0.001630    3.977373
     64          6           0       -2.715291    1.125230   -1.311561
     65          1           0       -3.480393    0.434765   -1.688328
     66          1           0       -3.240138    1.933023   -0.787035
     67          1           0       -2.150266    1.522051   -2.162022
 ---------------------------------------------------------------------
 Rotational constants (GHZ):           0.0818861           0.0378741           0.0331961
 Leave Link  202 at Sun May  4 11:11:16 2025, MaxMem= 82678120448 cpu:               0.9 elap:               0.0
 (Enter /sysapps/ubuntu-applications/gaussian-new/avx/g16/l301.exe)
 General basis read from cards:  (5D, 7F)
 Centers:      37     38     39     45     46     51     53     55     56     57
 Centers:      61     62     63     65     66     67
 S 3 1.00
     Exponent=  1.3010701000D+01 Coefficients=  1.9682158000D-02
     Exponent=  1.9622572000D+00 Coefficients=  1.3796524000D-01
     Exponent=  4.4453796000D-01 Coefficients=  4.7831935000D-01
 S 1 1.00
     Exponent=  1.2194962000D-01 Coefficients=  1.0000000000D+00
 P 1 1.00
     Exponent=  8.0000000000D-01 Coefficients=  1.0000000000D+00
 ****
 Centers:       1      2      3     18     19     20     30     31     32     33
 Centers:      34     35     36     44     47     48     49     50     52     54
 Centers:      60     64
 S 5 1.00
     Exponent=  1.2384016938D+03 Coefficients=  5.4568832082D-03
     Exponent=  1.8629004992D+02 Coefficients=  4.0638409211D-02
     Exponent=  4.2251176346D+01 Coefficients=  1.8025593888D-01
     Exponent=  1.1676557932D+01 Coefficients=  4.6315121755D-01
     Exponent=  3.5930506482D+00 Coefficients=  4.4087173314D-01
 S 1 1.00
     Exponent=  4.0245147363D-01 Coefficients=  1.0000000000D+00
 S 1 1.00
     Exponent=  1.3090182668D-01 Coefficients=  1.0000000000D+00
 P 3 1.00
     Exponent=  9.4680970621D+00 Coefficients=  3.8387871728D-02
     Exponent=  2.0103545142D+00 Coefficients=  2.1117025112D-01
     Exponent=  5.4771004707D-01 Coefficients=  5.1328172114D-01
 P 1 1.00
     Exponent=  1.5268613795D-01 Coefficients=  1.0000000000D+00
 D 1 1.00
     Exponent=  8.0000000000D-01 Coefficients=  1.0000000000D+00
 ****
 Centers:      40     41     42     43
 S 5 1.00
     Exponent=  1.7128415853D+03 Coefficients= -5.3934125305D-03
     Exponent=  2.5764812677D+02 Coefficients= -4.0221581118D-02
     Exponent=  5.8458245853D+01 Coefficients= -1.7931144990D-01
     Exponent=  1.6198367905D+01 Coefficients= -4.6376317823D-01
     Exponent=  5.0052600809D+00 Coefficients= -4.4171422662D-01
 S 1 1.00
     Exponent=  5.8731856571D-01 Coefficients=  1.0000000000D+00
 S 1 1.00
     Exponent=  1.8764592253D-01 Coefficients=  1.0000000000D+00
 P 3 1.00
     Exponent=  1.3571470233D+01 Coefficients= -4.0072398852D-02
     Exponent=  2.9257372874D+00 Coefficients= -2.1807045028D-01
     Exponent=  7.9927750754D-01 Coefficients= -5.1294466049D-01
 P 1 1.00
     Exponent=  2.1954348034D-01 Coefficients=  1.0000000000D+00
 D 1 1.00
     Exponent=  1.0000000000D+00 Coefficients=  1.0000000000D+00
 ****
 Centers:       4      5      6      7      8     12     13     14     15     16
 Centers:      17     59
 S 5 1.00
     Exponent=  2.2661767785D+03 Coefficients= -5.3431809926D-03
     Exponent=  3.4087010191D+02 Coefficients= -3.9890039230D-02
     Exponent=  7.7363135167D+01 Coefficients= -1.7853911985D-01
     Exponent=  2.1479644940D+01 Coefficients= -4.6427684959D-01
     Exponent=  6.6589433124D+00 Coefficients= -4.4309745172D-01
 S 1 1.00
     Exponent=  8.0975975668D-01 Coefficients=  1.0000000000D+00
 S 1 1.00
     Exponent=  2.5530772234D-01 Coefficients=  1.0000000000D+00
 P 3 1.00
     Exponent=  1.7721504317D+01 Coefficients=  4.3394573193D-02
     Exponent=  3.8635505440D+00 Coefficients=  2.3094120765D-01
     Exponent=  1.0480920883D+00 Coefficients=  5.1375311064D-01
 P 1 1.00
     Exponent=  2.7641544411D-01 Coefficients=  1.0000000000D+00
 D 1 1.00
     Exponent=  1.2000000000D+00 Coefficients=  1.0000000000D+00
 ****
 Centers:      21     22     23     24     25     26     27     28     29
 S 5 1.00
     Exponent=  2.8948325990D+03 Coefficients= -5.3408255515D-03
     Exponent=  4.3541939120D+02 Coefficients= -3.9904258866D-02
     Exponent=  9.8843328866D+01 Coefficients= -1.7912768038D-01
     Exponent=  2.7485198001D+01 Coefficients= -4.6758090825D-01
     Exponent=  8.5405498171D+00 Coefficients= -4.4653131020D-01
 S 1 1.00
     Exponent=  1.0654578038D+00 Coefficients=  1.0000000000D+00
 S 1 1.00
     Exponent=  3.3247346748D-01 Coefficients=  1.0000000000D+00
 P 3 1.00
     Exponent=  2.2696633924D+01 Coefficients= -4.5212874436D-02
     Exponent=  4.9872339257D+00 Coefficients= -2.3754317067D-01
     Exponent=  1.3491613954D+00 Coefficients= -5.1287353587D-01
 P 1 1.00
     Exponent=  3.4829881977D-01 Coefficients=  1.0000000000D+00
 D 1 1.00
     Exponent=  1.4000000000D+00 Coefficients=  1.0000000000D+00
 ****
 Centers:       9     10     11
 S 5 1.00
     Exponent=  9.1849303010D+03 Coefficients= -2.2294387756D-03
     Exponent=  1.3815105503D+03 Coefficients= -1.6683029937D-02
     Exponent=  3.1387147580D+02 Coefficients= -7.5262436116D-02
     Exponent=  8.8053870623D+01 Coefficients= -1.9376827038D-01
     Exponent=  2.7039914905D+01 Coefficients= -1.7718020803D-01
 S 3 1.00
     Exponent=  4.5648731303D+01 Coefficients= -1.0736062573D-01
     Exponent=  4.9664522326D+00 Coefficients=  6.5066293018D-01
     Exponent=  2.0116242047D+00 Coefficients=  5.9712155354D-01
 S 1 1.00
     Exponent=  3.5661077013D-01 Coefficients=  1.0000000000D+00
 S 1 1.00
     Exponent=  1.3507221477D-01 Coefficients=  1.0000000000D+00
 P 5 1.00
     Exponent=  2.6198233439D+02 Coefficients= -9.2729929822D-03
     Exponent=  6.1306894736D+01 Coefficients= -6.6547669241D-02
     Exponent=  1.9103729887D+01 Coefficients= -2.4828595903D-01
     Exponent=  6.6567720378D+00 Coefficients= -4.8703847402D-01
     Exponent=  2.3959635161D+00 Coefficients= -3.9337850312D-01
 P 1 1.00
     Exponent=  6.1776161679D-01 Coefficients=  1.0000000000D+00
 P 1 1.00
     Exponent=  1.6993376871D-01 Coefficients=  1.0000000000D+00
 D 1 1.00
     Exponent=  5.5000000000D-01 Coefficients=  1.0000000000D+00
 ****
 Centers:      58
 S 5 1.00
     Exponent=  9.5169767000D+04 Coefficients=  2.2000000000D-05
     Exponent=  1.5488403000D+04 Coefficients=  1.4500000000D-04
     Exponent=  3.7762335000D+03 Coefficients=  6.5100000000D-04
     Exponent=  1.0790501000D+03 Coefficients=  2.0380000000D-03
     Exponent=  2.6895380000D+02 Coefficients=  5.1270000000D-03
 S 1 1.00
     Exponent=  6.3467900000D+01 Coefficients=  1.0000000000D+00
 S 1 1.00
     Exponent=  4.5133200000D+01 Coefficients=  1.0000000000D+00
 S 1 1.00
     Exponent=  2.1456800000D+01 Coefficients=  1.0000000000D+00
 S 1 1.00
     Exponent=  5.3483000000D+00 Coefficients=  1.0000000000D+00
 S 1 1.00
     Exponent=  2.6778000000D+00 Coefficients=  1.0000000000D+00
 S 1 1.00
     Exponent=  1.0287000000D+00 Coefficients=  1.0000000000D+00
 S 1 1.00
     Exponent=  4.4080000000D-01 Coefficients=  1.0000000000D+00
 S 1 1.00
     Exponent=  7.9100000000D-02 Coefficients=  1.0000000000D+00
 S 1 1.00
     Exponent=  3.1300000000D-02 Coefficients=  1.0000000000D+00
 P 3 1.00
     Exponent=  1.2333733920D+01 Coefficients= -1.5313031066D-01
     Exponent=  1.1080331415D+01 Coefficients= -2.0300664852D-01
     Exponent=  2.0341747228D+00 Coefficients= -1.9458361263D-01
 P 6 1.00
     Exponent=  1.5005317313D+03 Coefficients= -1.0192569555D-03
     Exponent=  3.8239748937D+02 Coefficients= -5.9476212135D-03
     Exponent=  1.3299969628D+02 Coefficients= -1.6265160929D-02
     Exponent=  4.6110032419D+01 Coefficients= -3.5623845839D-02
     Exponent=  1.5583529011D+01 Coefficients=  2.3709171074D-01
     Exponent=  5.7856677022D+00 Coefficients= -3.0670977844D-01
 P 1 1.00
     Exponent=  3.7823361008D+00 Coefficients=  1.0000000000D+00
 P 1 1.00
     Exponent=  1.3682592248D+00 Coefficients=  1.0000000000D+00
 P 1 1.00
     Exponent=  5.7288205601D-01 Coefficients=  1.0000000000D+00
 P 1 1.00
     Exponent=  2.2793165135D-01 Coefficients=  1.0000000000D+00
 P 1 1.00
     Exponent=  8.1403917986D-02 Coefficients=  1.0000000000D+00
 P 1 1.00
     Exponent=  2.9091071778D-02 Coefficients=  1.0000000000D+00
 D 6 1.00
     Exponent=  4.8452750000D+02 Coefficients=  2.2860000000D-03
     Exponent=  1.4666550000D+02 Coefficients=  1.8629000000D-02
     Exponent=  5.6377900000D+01 Coefficients=  7.4088000000D-02
     Exponent=  2.3671100000D+01 Coefficients=  1.6155400000D-01
     Exponent=  9.4401000000D+00 Coefficients=  3.0809100000D-01
     Exponent=  4.3712000000D+00 Coefficients=  4.4833400000D-01
 D 1 1.00
     Exponent=  1.9580000000D+00 Coefficients=  1.0000000000D+00
 D 1 1.00
     Exponent=  7.2720000000D-01 Coefficients=  1.0000000000D+00
 D 1 1.00
     Exponent=  2.4600000000D-01 Coefficients=  1.0000000000D+00
 D 1 1.00
     Exponent=  7.4400000000D-02 Coefficients=  1.0000000000D+00
 F 5 1.00
     Exponent=  1.7515590000D+02 Coefficients=  4.1020000000D-03
     Exponent=  6.2890900000D+01 Coefficients=  3.9086000000D-02
     Exponent=  2.8362400000D+01 Coefficients=  1.4704400000D-01
     Exponent=  1.3247800000D+01 Coefficients=  2.7109200000D-01
     Exponent=  6.1440000000D+00 Coefficients=  3.4566500000D-01
 F 1 1.00
     Exponent=  2.7623000000D+00 Coefficients=  1.0000000000D+00
 F 1 1.00
     Exponent=  1.1574000000D+00 Coefficients=  1.0000000000D+00
 F 1 1.00
     Exponent=  4.2440000000D-01 Coefficients=  1.0000000000D+00
 G 1 1.00
     Exponent=  7.0090000000D-01 Coefficients=  1.0000000000D+00
 ****
 ======================================================================================================
                                       Pseudopotential Parameters
 ======================================================================================================
  Center     Atomic      Valence      Angular      Power
  Number     Number     Electrons     Momentum     of R      Exponent        Coefficient   SO-Coeffient
 ======================================================================================================
    1          6
                                   No pseudopotential on this center.
    2          6
                                   No pseudopotential on this center.
    3          6
                                   No pseudopotential on this center.
    4          8
                                   No pseudopotential on this center.
    5          8
                                   No pseudopotential on this center.
    6          8
                                   No pseudopotential on this center.
    7          8
                                   No pseudopotential on this center.
    8          8
                                   No pseudopotential on this center.
    9         16
                                   No pseudopotential on this center.
   10         16
                                   No pseudopotential on this center.
   11         16
                                   No pseudopotential on this center.
   12          8
                                   No pseudopotential on this center.
   13          8
                                   No pseudopotential on this center.
   14          8
                                   No pseudopotential on this center.
   15          8
                                   No pseudopotential on this center.
   16          8
                                   No pseudopotential on this center.
   17          8
                                   No pseudopotential on this center.
   18          6
                                   No pseudopotential on this center.
   19          6
                                   No pseudopotential on this center.
   20          6
                                   No pseudopotential on this center.
   21          9
                                   No pseudopotential on this center.
   22          9
                                   No pseudopotential on this center.
   23          9
                                   No pseudopotential on this center.
   24          9
                                   No pseudopotential on this center.
   25          9
                                   No pseudopotential on this center.
   26          9
                                   No pseudopotential on this center.
   27          9
                                   No pseudopotential on this center.
   28          9
                                   No pseudopotential on this center.
   29          9
                                   No pseudopotential on this center.
   30          6
                                   No pseudopotential on this center.
   31          6
                                   No pseudopotential on this center.
   32          6
                                   No pseudopotential on this center.
   33          6
                                   No pseudopotential on this center.
   34          6
                                   No pseudopotential on this center.
   35          6
                                   No pseudopotential on this center.
   36          6
                                   No pseudopotential on this center.
   37          1
                                   No pseudopotential on this center.
   38          1
                                   No pseudopotential on this center.
   39          1
                                   No pseudopotential on this center.
   40          7
                                   No pseudopotential on this center.
   41          7
                                   No pseudopotential on this center.
   42          7
                                   No pseudopotential on this center.
   43          7
                                   No pseudopotential on this center.
   44          6
                                   No pseudopotential on this center.
   45          1
                                   No pseudopotential on this center.
   46          1
                                   No pseudopotential on this center.
   47          6
                                   No pseudopotential on this center.
   48          6
                                   No pseudopotential on this center.
   49          6
                                   No pseudopotential on this center.
   50          6
                                   No pseudopotential on this center.
   51          1
                                   No pseudopotential on this center.
   52          6
                                   No pseudopotential on this center.
   53          1
                                   No pseudopotential on this center.
   54          6
                                   No pseudopotential on this center.
   55          1
                                   No pseudopotential on this center.
   56          1
                                   No pseudopotential on this center.
   57          1
                                   No pseudopotential on this center.
   58         71           43
                                      H and up 
                                                     2        1.0000000        0.00000000    0.00000000
                                      S - H
                                                     2       35.1620970      989.99558400    0.00000000
                                      P - H
                                                     2       19.4644020      278.86565200    0.00000000
                                      D - H
                                                     2       10.0068650       71.00917800    0.00000000
                                      F - H
                                                     2       23.5179320      -47.40589000    0.00000000
                                      G - H
                                                     2       29.4122380      -35.55714600    0.00000000
   59          8
                                   No pseudopotential on this center.
   60          6
                                   No pseudopotential on this center.
   61          1
                                   No pseudopotential on this center.
   62          1
                                   No pseudopotential on this center.
   63          1
                                   No pseudopotential on this center.
   64          6
                                   No pseudopotential on this center.
   65          1
                                   No pseudopotential on this center.
   66          1
                                   No pseudopotential on this center.
   67          1
                                   No pseudopotential on this center.
 ======================================================================================================
 Ernie: Thresh=  0.10000D-02 Tol=  0.10000D-05 Strict=F.
 There are   961 symmetry adapted cartesian basis functions of A   symmetry.
 There are   888 symmetry adapted basis functions of A   symmetry.
   888 basis functions,  1612 primitive gaussians,   961 cartesian basis functions
   222 alpha electrons      222 beta electrons
       nuclear repulsion energy     11054.2997955743 Hartrees.
 IExCor= 7252 DFT=T Ex+Corr=MN15 ExCW=0 ScaHFX=  0.440000
 ScaDFX=  1.000000  1.000000  1.000000  1.000000 ScalE2=  1.000000  1.000000
 IRadAn=      5 IRanWt=     -1 IRanGd=            0 ICorTp=0 IEmpDi=  4
 NAtoms=   67 NActive=   67 NUniq=   67 SFac= 1.00D+00 NAtFMM=   60 NAOKFM=T Big=T
 Integral buffers will be    131072 words long.
 Raffenetti 2 integral format.
 Two-electron integral symmetry is turned on.
 ------------------------------------------------------------------------------
 Polarizable Continuum Model (PCM)
 =================================
 Model                : PCM.
 Atomic radii         : SMD-Coulomb.
 Polarization charges : Total charges.
 Charge compensation  : None.
 Solution method      : On-the-fly selection.
 Cavity type          : VdW (van der Waals Surface) (Alpha=1.000).
 Cavity algorithm     : GePol (No added spheres)
                        Default sphere list used, NSphG=   67.
                        Lebedev-Laikov grids with approx.  5.0 points / Ang**2.
                        Smoothing algorithm: York/Karplus (Gamma=1.0000).
                        Polarization charges: spherical gaussians, with
                                              point-specific exponents (IZeta= 3).
                        Self-potential: point-specific (ISelfS= 7).
                        Self-field    : sphere-specific E.n sum rule (ISelfD= 2).
 1st derivatives      : Analytical E(r).r(x)/FMM algorithm (CHGder, D1EAlg=3).
                        Cavity 1st derivative terms included.
 Solvent              : DiChloroEthane, Eps=  10.125000 Eps(inf)=   2.087447
 ------------------------------------------------------------------------------
 GePol: Number of generator spheres                  =      67
 GePol: Total number of spheres                      =      67
 GePol: Number of exposed spheres                    =      67 (100.00%)
 GePol: Number of points                             =    4782
 GePol: Average weight of points                     =       0.13
 GePol: Minimum weight of points                     =   0.53D-11
 GePol: Maximum weight of points                     =    0.21501
 GePol: Number of points with low weight             =     316
 GePol: Fraction of low-weight points (<1% of avg)   =       6.61%
 GePol: Cavity surface area                          =    608.704 Ang**2
 GePol: Cavity volume                                =    747.315 Ang**3
 ------------------------------------------------------------------------------
 Atomic radii for non-electrostatic terms: SMD-CDS.
 ------------------------------------------------------------------------------
 PCM non-electrostatic energy =         0.0040067952 Hartrees.
 Nuclear repulsion after PCM non-electrostatic terms =    11054.3038023695 Hartrees.
 Leave Link  301 at Sun May  4 11:11:16 2025, MaxMem= 82678120448 cpu:               7.3 elap:               0.3
 (Enter /sysapps/ubuntu-applications/gaussian-new/avx/g16/l302.exe)
 NPDir=0 NMtPBC=     1 NCelOv=     1 NCel=       1 NClECP=     1 NCelD=      1
         NCelK=      1 NCelE2=     1 NClLst=     1 CellRange=     0.0.
 One-electron integrals computed using PRISM.
 One-electron integral symmetry used in STVInt
   1 Symmetry operations used in ECPInt.
 ECPInt:  NShTT=   73153 NPrTT=  279412 LenC2=   56903 LenP2D=  132861.
 LDataN:  DoStor=T MaxTD1= 9 Len=  602
 NBasis=   888 RedAO= T EigKep=  1.94D-04  NBF=   888
 NBsUse=   888 1.00D-06 EigRej= -1.00D+00 NBFU=   888
 Precomputing XC quadrature grid using
 IXCGrd= 4 IRadAn=           5 IRanWt=          -1 IRanGd=           0 AccXCQ= 0.00D+00.
 Defaulting to unpruned grid for atomic number  71.
 Generated NRdTot=       0 NPtTot=           0 NUsed=           0 NTot=          32
 NSgBfM=   919   918   919   919   919 MxSgAt=    67 MxSgA2=    67.
 Leave Link  302 at Sun May  4 11:11:22 2025, MaxMem= 82678120448 cpu:             135.3 elap:               5.9
 (Enter /sysapps/ubuntu-applications/gaussian-new/avx/g16/l303.exe)
 DipDrv:  MaxL=1.
 Leave Link  303 at Sun May  4 11:11:28 2025, MaxMem= 82678120448 cpu:             138.0 elap:               6.3
 (Enter /sysapps/ubuntu-applications/gaussian-new/avx/g16/l401.exe)
 ExpMin= 2.91D-02 ExpMax= 9.52D+04 ExpMxC= 1.55D+04 IAcc=3 IRadAn=         5 AccDes= 0.00D+00
 Harris functional with IExCor= 1009 and IRadAn=       5 diagonalized for initial guess.
 HarFok:  IExCor= 1009 AccDes= 0.00D+00 IRadAn=         5 IDoV= 1 UseB2=F ITyADJ=14
 ICtDFT=  3500011 ScaDFX=  1.000000  1.000000  1.000000  1.000000
[...]
 0862,-0.00156202,0.00065777,0.00015983,-0.00041038,-0.00020980,0.00001
 123,0.00006248,-0.00000042,-0.00006585,0.00000318,-0.00003561,-0.00119
 791,0.00040531,0.00025182,-0.00023424,-0.00054961,0.00015079,-0.000896
 26,0.00003385,0.00032936,0.00016047,-0.00011686,-0.00004858,0.00004438
 ,-0.00001283,0.00000086,0.00009664,0.00000467,0.00006943,-0.00000486,-
 0.00011172,-0.00004415,0.00005507,-0.00005617,-0.00008251,-0.00001590,
 0.00001306,-0.00000197,0.00000827,0.00000702,-0.00001122,-0.00000405,-
 0.00000330,0.00000089,-0.00051039,-0.00024224,-0.00003981,-0.00072067,
 0.00010224,0.00002421,0.00008267,0.00032597,0.00004200,-0.00001182,0.0
 0000074,0.00002081,-0.00000480,-0.00001560,-0.00005446,-0.00002994,-0.
 00000465,0.00007707,-0.12436315,-0.15375067,-0.06147202,0.13517444,0.1
 6598983,-0.00100926,0.00430010,-0.00210116,-0.01068181,-0.01503715,-0.
 00585245,0.00189008,0.00002068,0.00175723,-0.00125194,0.00026105,0.000
 16201,0.00047701,0.00067558,-0.00028173,-0.00003960,0.00000161,-0.0000
 0428,-0.00000886,0.00003491,0.00003386,-0.00002574,-0.00013003,0.00011
 018,-0.00010100,0.00015954,-0.00017473,0.00008340,-0.00003191,0.000033
 34,0.00000439,-0.00004757,-0.00002464,0.00003565,-0.00010297,0.0000362
 1,0.00004102,-0.00001723,0.00005216,-0.00007868,-0.00000360,-0.0000138
 1,-0.00001617,0.00000824,-0.00001455,-0.00000020,0.00006164,0.00004480
 ,0.00000534,0.00002031,0.00000668,0.00001325,-0.00002269,0.00000067,0.
 00002604,0.00001168,-0.00001170,-0.00038060,-0.00045110,-0.00033704,-0
 .00000244,0.00000981,-0.00000450,-0.00000601,0.00000234,-0.00000021,-0
 .00000581,0.00000797,0.00000434,-0.00000542,-0.00000329,0.00000403,-0.
 00001319,0.00000458,0.00000525,-0.00001132,-0.00000887,-0.00000043,0.0
 0042921,0.00031945,0.00017269,0.00005399,0.00009970,0.00002934,0.00007
 466,0.00010162,0.00017004,0.00007358,0.00039782,-0.00081315,-0.0000177
 3,0.00008766,-0.00008963,0.00000230,0.00001826,0.00000071,-0.00007413,
 -0.00005043,-0.00001523,-0.00013909,0.00001112,0.00029001,0.00003528,-
 0.00016152,0.00063859,-0.00008061,0.00024086,-0.00024010,-0.00001005,-
 0.00000028,-0.00000737,0.00000321,-0.00006811,-0.00010198,-0.00000519,
 -0.00003974,0.00001294,-0.00001005,-0.00002590,0.00000435,0.00002413,0
 .00000863,0.00003816,-0.00015395,0.00029683,-0.00079555,-0.00039513,-0
 .00053332,0.00024929,0.00037326,-0.00016499,0.00005235,0.00002786,0.00
 000824,-0.00000978,0.00005251,0.00000946,0.00006962,0.00026325,-0.0000
 3255,-0.00033800,-0.00009883,-0.00067159,-0.00002978,-0.00010462,0.000
 11703,0.00048524,-0.00002201,0.00001314,-0.00011271,0.00006317,0.00003
 234,-0.00001714,0.00020797,-0.00020501,0.00002509,0.00009846,-0.000002
 46,0.00002079,0.00004341,0.00029230,-0.00001516,-0.00001753,0.00003374
 ,-0.00001746,-0.00004147,-0.00000515,-0.00004247,-0.00001941,0.0000200
 5,-0.00000910,0.00026966,0.00029887,-0.00041086,0.00076451,-0.00118180
 ,0.00088130,-0.00013962,-0.00039010,-0.00004894,0.00001969,-0.00000921
 ,-0.00005296,0.00001514,0.00001617,0.00007054,0.00004510,0.00001067,-0
 .00008975,-0.07281802,-0.06386679,-0.07764092,0.07653274,0.06866093,0.
 07875199,-0.00078690,-0.00132480,0.00062341,-0.01103883,0.01341049,0.0
 1010181,-0.00038022,-0.00012257,0.00000460,0.00008896,-0.00002227,-0.0
 0019159,-0.00327663,0.00122104,-0.00368232,-0.00005907,0.00003069,-0.0
 0005022,-0.00002765,0.00004392,0.00003195,0.00009245,-0.00016941,0.000
 02873,-0.00034694,0.00018543,-0.00014983,0.00005556,0.00001366,0.00005
 690,-0.00001099,-0.00007526,-0.00001837,0.00012979,-0.00021266,-0.0000
 2429,0.00010157,0.00002166,0.00007518,-0.00003427,-0.00003349,-0.00005
 278,-0.00000945,-0.00000015,-0.00001856,0.00002993,0.00001816,0.000015
 13,0.00000766,0.00001555,0.00001097,0.00001203,-0.00000983,-0.00000054
 ,0.00001613,0.00000987,-0.00000821,-0.00115693,-0.00015069,0.00064988,
 -0.00000313,0.00000588,-0.00000335,-0.00000390,0.00000106,0.00000038,-
 0.00000409,0.00000415,0.00000329,-0.00000186,-0.00000497,0.00000449,-0
 .00000415,0.00000082,0.00000235,-0.00000675,-0.00000853,-0.00000094,0.
 00006744,-0.00012962,-0.00017285,0.00020481,0.00017836,-0.00011669,0.0
 0057765,-0.00010882,-0.00027313,-0.00009684,-0.00021080,0.00004185,-0.
 00001398,-0.00000098,-0.00007043,-0.00000346,-0.00001340,0.00001378,0.
 00001759,0.00003383,0.00002343,-0.00007025,-0.00000221,0.00016142,0.00
 009626,-0.00007479,0.00000590,-0.00009297,0.00011955,-0.00008816,-0.00
 000439,-0.00000006,0.00000274,0.00000601,0.00005033,0.00001864,-0.0000
 1084,-0.00001137,-0.00000099,-0.00000335,0.00001302,-0.00001385,-0.000
 00960,-0.00000499,-0.00001324,-0.00000728,0.00014668,-0.00008790,-0.00
 018280,-0.00027349,0.00013851,0.00018227,-0.00014877,0.00001404,0.0000
 1793,0.00001497,-0.00000381,-0.00001013,0.00002399,-0.00002519,-0.0002
 4364,-0.00078135,0.00005370,-0.00142241,-0.00003529,0.00079634,0.00033
 729,0.00007706,-0.00000433,-0.00028291,0.00024993,0.00005712,-0.000065
 77,0.00004510,0.00015517,-0.00007302,0.00015008,-0.00013505,0.00000687
 ,0.00001961,0.00001661,0.00004921,-0.00005277,-0.00004044,0.00001899,-
 0.00002046,0.00000204,0.00000986,0.00000727,0.00001886,0.00000761,-0.0
 0000730,0.00002200,0.00028470,0.00008703,0.00008679,0.00076942,-0.0003
 3639,-0.00015880,0.00006771,0.00021501,-0.00001441,0.00000444,-0.00000
 204,-0.00000111,0.00000008,-0.00001467,-0.00003834,-0.00000478,-0.0000
 0354,0.00003609,-0.10694545,0.10632077,0.07295704,0.00970090,-0.015098
 07,-0.00946017,0.11918851,0.00214196,0.00022369,0.00141234,0.00251659,
 -0.00868082,-0.00980795,-0.00035205,0.00053838,-0.00044353,0.00016755,
 -0.00009045,0.00008101,0.00152112,-0.00054228,0.00140357,0.00007914,-0
 .00002766,0.00004509,0.00003758,-0.00005017,-0.00006393,0.00007948,0.0
 0014376,0.00000295,-0.00005714,-0.00014480,0.00005484,-0.00009628,0.00
 001246,-0.00006696,-0.00004732,0.00007054,0.00011554,0.00002656,0.0000
 5747,-0.00002238,0.00002407,0.00005153,0.00000268,0.00006983,-0.000001
 35,0.00004796,0.00002044,-0.00000826,0.00002599,0.00005295,-0.00005600
 ,-0.00005564,-0.00000345,-0.00001474,-0.00003984,-0.00003524,0.0000302
 9,0.00000205,-0.00003862,-0.00000567,0.00001060,-0.00004231,-0.0000180
 6,0.00010934,0.00000741,-0.00001230,0.00000380,0.00001386,-0.00000377,
 0.00000003,0.00001464,-0.00001666,-0.00001377,0.00001037,0.00000202,-0
 .00000148,0.00001654,-0.00000698,-0.00000535,0.00001530,0.00001063,0.0
 0000094,0.00003797,-0.00002630,-0.00007649,-0.00002085,-0.00001091,0.0
 0000024,-0.00071107,-0.00051420,-0.00014581,-0.00050272,-0.00083853,0.
 00044752,0.00009760,0.00002519,-0.00009306,-0.00002904,0.00000235,0.00
 000224,0.00001253,-0.00000070,0.00005069,-0.00007265,0.00000294,0.0001
 3603,0.00005718,-0.00000728,0.00005655,-0.00008980,0.00010934,-0.00006
 505,-0.00000507,0.00000198,0.00000291,0.00000098,0.00002198,0.00002931
 ,-0.00000683,-0.00000726,0.00000155,0.00001852,0.00002033,-0.00000372,
 -0.00001261,0.00000523,-0.00002860,0.00005585,0.00009649,-0.00010643,-
 0.00014551,-0.00025903,0.00010774,0.00013997,-0.00013221,0.00002297,0.
 00002018,0.00001325,-0.00000683,0.00000341,0.00002898,-0.00003406,0.00
 072249,0.00009882,-0.00020966,0.00042859,0.00035238,-0.00000449,-0.000
 15849,-0.00015022,-0.00048474,-0.00004726,0.00016897,-0.00041086,-0.00
 007524,0.00006518,0.00006858,0.00004724,-0.00021655,0.00023133,0.00001
 413,0.00003391,0.00000379,-0.00005659,0.00012458,0.00017171,0.00002994
 ,-0.00003704,0.00001157,0.00002837,0.00000034,0.00001668,0.00002065,0.
 00000005,0.00002130,-0.00048796,0.00007002,-0.00009468,-0.00093398,0.0
 0086516,-0.00067732,-0.00003899,-0.00022531,0.00002818,-0.00001465,0.0
 0001290,0.00003593,-0.00002266,0.00001248,0.00004414,-0.00000620,0.000
 00154,-0.00004487,0.10618086,-0.19294791,-0.09851909,0.00994948,-0.012
 30177,-0.00779604,-0.11340661,0.20301397,-0.00048250,0.00021008,-0.002
 58736,-0.00609888,0.01450550,0.01491766,0.00061549,-0.00106303,0.00073
 451,-0.00046525,0.00024040,-0.00012184,-0.00491492,-0.00020285,-0.0023
 2805,-0.00014505,0.00006155,-0.00008461,-0.00004968,0.00009384,0.00011
 341,0.00001744,-0.00017724,-0.00004267,0.00005613,0.00018175,0.0000613
 8,0.00015733,-0.00001325,0.00012043,0.00001772,-0.00012800,-0.00017287
 ,-0.00003672,-0.00010270,0.00000524,-0.00003209,-0.00006618,-0.0000270
 4,-0.00010730,-0.00000579,-0.00008429,-0.00003342,0.00001214,-0.000046
 79,-0.00003760,0.00008148,0.00008805,0.00002813,0.00002609,0.00006896,
 0.00003897,-0.00003405,-0.00000642,0.00006086,0.00001262,-0.00001871,0
 .00019209,-0.00003126,-0.00029010,-0.00000870,0.00001409,-0.00000303,-
 0.00001239,0.00000509,0.00000236,-0.00001678,0.00001995,0.00001816,-0.
 00001620,-0.00000400,0.00000520,-0.00002531,0.00001150,0.00000904,-0.0
 0002357,-0.00001889,-0.00000210,0.00006087,0.00010702,0.00011667,-0.00
 002274,-0.00002244,0.00004447,-0.00052360,-0.00032235,-0.00001664,0.00
 074034,0.00015308,0.00025071,-0.00016389,-0.00015031,0.00001567,0.0000
 5567,-0.00003295,0.00002032,-0.00005218,-0.00002469,-0.00001165,0.0000
 1769,-0.00000092,-0.00001894,-0.00004183,0.00001029,-0.00003642,0.0000
 0052,-0.00002520,0.00002692,0.00000127,-0.00000116,0.00000135,0.000006
 93,0.00003921,0.00001772,-0.00000384,0.00000038,-0.00000353,-0.0000221
 2,0.00000455,-0.00000995,0.00001504,0.00000819,-0.00000286,-0.00002395
 ,-0.00006053,-0.00000260,-0.00002202,-0.00007261,0.00003347,-0.0000024
 5,0.00002288,0.00001580,-0.00000230,-0.00000589,0.00000343,-0.00003524
 ,-0.00002528,0.00002193,0.00050921,0.00049294,-0.00018176,0.00090448,0
 .00011667,0.00015368,-0.00022519,-0.00010554,-0.00019713,0.00011821,0.
 00005330,-0.00013206,0.00007945,-0.00007399,-0.00020780,0.00001096,-0.
 00008484,0.00005912,0.00000327,-0.00000205,-0.00001042,-0.00008022,-0.
 00001634,-0.00008754,-0.00004072,0.00000694,0.00002337,0.00001127,0.00
 000088,-0.00000300,-0.00000835,-0.00000231,-0.00000499,0.00066072,-0.0
 0016109,0.00000453,-0.00088499,0.00023657,-0.00070367,0.00008572,0.000
 33774,-0.00008462,0.00002209,0.00000385,-0.00002144,0.00004908,-0.0000
 1719,-0.00008093,-0.00001762,0.00001373,0.00007470,0.07159017,-0.09956
 108,-0.11436053,0.00625892,-0.00674031,-0.00513485,-0.07477353,0.10835
 485,0.11759095,-0.00339457,0.00111150,-0.00086348,0.00960036,0.0106708
 4,-0.01998411,0.00055929,-0.00018272,-0.00088278,-0.00004613,-0.000027
 46,0.00017104,0.00167807,-0.00138779,0.00116966,0.00002679,-0.00001870
 ,0.00003052,0.00003324,-0.00008907,-0.00002882,0.00004043,-0.00006893,
 0.00012136,-0.00029803,0.00002922,-0.00026216,-0.00006120,0.00003447,-
 0.00003917,-0.00000790,0.00010143,0.00002320,0.00008694,-0.00001543,0.
 00004442,0.00011961,0.00006822,0.00011411,0.00004695,-0.00002831,0.000
 04327,0.00001549,-0.00000881,0.00001621,0.00000639,-0.00004978,-0.0000
 0833,0.00000152,-0.00002024,-0.00000556,-0.00002907,0.00002379,0.00000
 353,-0.00002894,0.00000014,-0.00000385,0.00001312,-0.00104040,-0.00117
 680,0.00000685,-0.00001366,0.00000802,0.00000807,-0.00000422,-0.000000
 36,0.00001244,-0.00001356,-0.00001094,0.00001118,-0.00000244,0.0000061
 6,0.00001244,-0.00000587,-0.00000269,0.00000975,0.00000588,0.00000191,
 -0.00125364,-0.00018233,0.00095521,0.00007887,0.00030116,0.00008386,-0
 .00018329,0.00008610,0.00003347,0.00010109,0.00021961,-0.00032117,-0.0
 0000589,-0.00000237,-0.00000152,0.00000568,0.00002052,-0.00000613,-0.0
 0001352,-0.00001057,-0.00001607,-0.00003511,-0.00000428,0.00007574,0.0
 0002989,-0.00001408,0.00010640,-0.00002688,0.00006393,-0.00005997,-0.0
 0000228,0.00000017,-0.00000214,-0.00001066,-0.00002586,-0.00000097,0.0
 0000351,-0.00000427,0.00000338,-0.00000183,-0.00001260,0.00000389,0.00
 000816,0.00000200,0.00001433,-0.00001268,0.00006188,-0.00013226,-0.000
 10631,-0.00024275,0.00005959,0.00009533,-0.00006044,0.00000039,0.00000
 642,0.00000420,-0.00000142,0.00001756,0.00002452,0.00000361,-0.0006899
 2,0.00000890,0.00004811,-0.00029325,-0.00034135,0.00007889,-0.00001989
 ,0.00010570,0.00040923,0.00006556,-0.00006519,0.00010979,0.00004929,-0
 .00000354,-0.00003425,0.00003030,0.00002473,-0.00000246,0.00002483,-0.
 00000132,-0.00000195,0.00000915,0.00001285,-0.00010795,-0.00001187,0.0
 0001996,-0.00000182,-0.00002205,-0.00000401,-0.00001554,-0.00001999,0.
 00000558,-0.00000726,-0.00014820,0.00021189,-0.00031639,0.00025520,-0.
 00023800,0.00046719,-0.00022407,0.00003570,-0.00010799,0.00000559,0.00
 000201,0.00001668,0.00000261,-0.00000421,-0.00005269,-0.00000035,-0.00
 000013,-0.00005337,-0.12484487,-0.05957551,0.12282175,-0.00770946,-0.0
 0466256,0.01519637,-0.00545395,-0.00716412,0.00706712,0.13187783,0.003
 48032,-0.00025485,0.00180196,-0.00947560,-0.00718732,0.01087959,-0.001
 18859,0.00085812,0.00028572,0.00059283,-0.00008802,-0.00027192,-0.0013
 9222,0.00042881,-0.00157732,0.00002357,-0.00000885,-0.00002156,-0.0000
 2219,0.00002321,-0.00006682,0.00004989,-0.00006424,0.00003097,-0.00029
 376,0.00017514,-0.00011226,-0.00002531,0.00002925,0.00000291,0.0000481
 4,-0.00005152,0.00018382,0.00008845,-0.00011917,-0.00002344,0.00010717
 ,0.00002922,0.00006969,0.00003641,-0.00001126,-0.00000243,0.00000789,-
 0.00000872,0.00000678,0.00003732,-0.00000371,-0.00007896,-0.00005329,0
 .00001427,-0.00007910,0.00001511,-0.00001370,0.00001136,-0.00001502,-0
 .00000018,0.00001401,-0.00040001,-0.00051680,-0.00062967,-0.00000491,0
 .00001449,-0.00001504,-0.00001031,-0.00000063,-0.00000577,-0.00000427,
 0.00000219,-0.00000505,0.00000424,0.00000031,-0.00000856,0.00000861,-0
 .00000640,-0.00000503,0.00000450,0.00000359,-0.00000109,-0.00096811,-0
 .00050601,0.00048624,0.00008850,0.00006152,0.00004412,0.00026909,0.000
 09980,-0.00000021,-0.00009716,-0.00008482,-0.00008669,0.00005505,0.000
 03495,-0.00005179,0.00001403,0.00000955,0.00000148,0.00002161,0.000008
 35,-0.00000293,-0.00007796,-0.00001203,0.00015530,0.00011706,-0.000026
 18,0.00013670,-0.00005121,0.00013167,-0.00009031,-0.00000790,-0.000003
 25,-0.00000279,-0.00003886,-0.00005996,-0.00001334,0.00000268,-0.00002
 250,0.00000958,-0.00000621,-0.00000101,-0.00000439,-0.00000854,-0.0000
 0714,0.00000333,0.00000068,0.00023317,-0.00025850,-0.00024570,-0.00037
 519,0.00009227,0.00017767,-0.00010201,-0.00001524,0.00001389,0.0000145
 9,-0.00000601,-0.00001550,-0.00001243,0.00000385,-0.00001267,0.0000620
 8,0.00005416,0.00033665,-0.00017261,0.00005344,-0.00023554,-0.00000066
 ,-0.00004642,-0.00014482,0.00006690,-0.00032285,-0.00005738,0.00002606
 ,0.00005813,0.00017481,-0.00019870,0.00014175,0.00001258,0.00001009,0.
 00001507,0.00001537,0.00025578,0.00011974,-0.00000096,-0.00000109,-0.0
 0000286,-0.00000123,0.00000042,-0.00000865,-0.00000203,0.00000529,0.00
 001011,-0.00004871,-0.00002340,0.00040618,-0.00023669,0.00055095,-0.00
 105689,0.00014096,-0.00033424,0.00011470,-0.00001561,0.00000296,-0.000
 01162,-0.00001459,0.00001945,0.00011273,0.00000148,0.00000706,0.000001
 16,-0.05642209,-0.08823595,0.08650964,-0.00682904,-0.00598814,0.014386
 47,0.01013745,0.01106606,-0.01608283,0.06233995,0.09025738,-0.00261881
 ,0.00154072,-0.00050228,0.01138172,0.00796935,-0.01810125,0.00120651,-
 0.00005336,-0.00060525,-0.00053331,0.00006024,0.00039788,0.00172127,-0
 .00279420,0.00297766,0.00002691,-0.00002957,0.00002834,0.00002436,-0.0
 0007463,-0.00003744,0.00007059,-0.00017751,0.00019999,-0.00061579,0.00
 011899,-0.00049146,-0.00005340,0.00005800,-0.00004535,-0.00000943,0.00
 009623,0.00009162,0.00019619,-0.00014354,0.00005662,0.00020985,0.00010
 104,0.00018445,0.00005367,-0.00004186,0.00006297,0.00001552,-0.0000178
 5,0.00002586,0.00003259,-0.00007798,-0.00002136,-0.00001488,-0.0000199
 9,-0.00003559,-0.00002442,0.00002308,-0.00000036,-0.00003404,0.0000060
 1,-0.00000858,-0.00122074,-0.00149465,-0.00089846,0.00000572,-0.000011
 91,0.00000578,0.00000625,-0.00000526,-0.00000062,0.00001042,-0.0000126
 9,-0.00001070,0.00001346,-0.00000618,0.00000959,0.00001483,-0.00001017
 ,-0.00000266,0.00000951,0.00000550,0.00000335,0.00118602,0.00102083,0.
 00077740,0.00020430,0.00041433,0.00004574,0.00053901,0.00045366,0.0002
 3443,-0.00034838,-0.00026953,-0.00014962,0.00002638,0.00001642,-0.0000
 2723,-0.00001834,0.00002193,-0.00000671,-0.00001738,-0.00003378,0.0000
 2032,-0.00003380,-0.00001439,0.00007159,0.00008230,0.00004245,0.000005
 03,-0.00000587,0.00004515,-0.00003113,-0.00000352,-0.00000081,-0.00000
 057,-0.00001049,-0.00001439,-0.00000520,0.00000244,-0.00000317,0.00000
 205,0.00001527,0.00000217,0.00000402,0.00000651,0.00001093,-0.00000569
 ,0.00001670,0.00011371,-0.00006588,-0.00016281,-0.00012235,-0.00000076
 ,0.00010797,-0.00008446,-0.00000218,0.00000765,-0.00000070,0.00000121,
 0.00004933,0.00003735,-0.00000609,-0.00008320,0.00003813,0.00003068,0.
 00010067,-0.00007000,0.00006512,-0.00019755,-0.00002701,0.00001494,-0.
 00007314,0.00002663,-0.00015263,-0.00003121,0.00002520,0.00003277,0.00
 010094,-0.00012060,0.00010657,0.00001612,0.00000688,0.00000131,0.00000
 321,0.00013744,0.00006070,0.00000276,-0.00000184,0.00000046,0.00000046
 ,-0.00000187,-0.00000304,-0.00000227,0.00000295,0.00000662,-0.00018463
 ,0.00033648,-0.00046076,-0.00016113,0.00045260,-0.00000398,-0.00029225
 ,-0.00008038,-0.00010155,0.00000578,0.00001044,0.00004182,-0.00000388,
 0.00000302,-0.00003963,-0.00000268,0.00001124,-0.00009003,0.11716187,0
 .08637364,-0.21541196,-0.00654393,-0.00468957,0.01064036,0.00346230,0.
 00615807,-0.00749000,-0.12479605,-0.09523460,0.22860875\\-0.00002019,-
 0.00000645,0.00001667,0.00001817,-0.00000688,-0.00001772,-0.00000595,-
 0.00000121,-0.00000689,0.00000775,0.00001438,0.00000551,-0.00000830,0.
 00003121,0.00002357,0.00000413,0.00000412,-0.00000636,0.00000283,-0.00
 001092,-0.00000679,-0.00000575,0.00000457,-0.00000087,-0.00001896,0.00
 000803,-0.00001367,0.00000340,-0.00000282,0.00000103,0.00002357,0.0000
 2060,0.00000530,-0.00000857,-0.00000805,-0.00001524,-0.00000623,0.0000
 0651,-0.00000299,-0.00001270,0.00000300,0.00001239,-0.00000706,0.00000
 935,0.00000413,0.00000455,0.00001461,-0.00000064,-0.00000309,0.0000083
 6,0.00001057,-0.00000483,-0.00000157,-0.00000294,0.00000045,0.00001448
 ,0.00000718,-0.00000458,-0.00000825,0.00000281,0.00000739,0.00000299,0
 .00000398,0.00000604,0.00000883,0.00000496,0.00000628,0.00000313,0.000
 00971,-0.00000325,0.00000969,0.00000135,0.,0.00000555,0.00000425,-0.00
 000067,0.00000711,-0.00000447,-0.00000618,-0.00000006,-0.00000335,-0.0
 0000438,0.00000493,-0.00000408,0.00000158,0.00000284,-0.00000716,-0.00
 000497,0.00000135,-0.00000092,-0.00001730,-0.00001580,0.00002476,0.000
 00834,-0.00000470,-0.00000323,0.00000941,0.00000419,-0.00000756,0.0000
 1214,0.00000094,0.00000420,-0.00000445,0.00000551,0.00000248,0.0000098
 3,-0.00000474,0.00000364,-0.00000137,-0.00000259,0.00000363,0.00000204
 ,-0.00000916,0.00000385,0.00000972,0.00000223,0.00000087,0.00000134,-0
 .00000739,0.00000023,0.00000154,-0.00000060,-0.00000007,0.00001773,-0.
 00000201,-0.00000795,0.00000518,-0.00000472,-0.00000758,-0.00001219,0.
 00000402,0.00000994,0.00000461,0.00000168,0.00000704,0.00000450,-0.000
 00711,-0.00000019,0.00000355,-0.00000815,-0.00000139,0.00000026,-0.000
 00459,-0.00000061,-0.00000178,-0.00000530,-0.00000763,-0.00000113,-0.0
 0000509,-0.00000355,-0.00000460,-0.00000308,-0.00000374,0.00000224,-0.
 00000682,-0.00000149,-0.00000039,-0.00000354,0.00000285,-0.00000132,-0
 .00000939,-0.00000399,-0.00000545,-0.00000694,-0.00000600,0.00000062,-
 0.00000920,-0.00000230,-0.00000158,-0.00000863,-0.00000409,0.00001274,
 -0.00002947,0.00000426,0.00001034,0.00001333,-0.00001345,0.00000519,-0
 .00000472,0.00000307,-0.00000488,0.00000705,0.00000206,0.00000001,0.00
 000596,-0.00000269,-0.00001310,-0.00000043,-0.00000467,-0.00000459,-0.
 00001337,-0.00000904,-0.00000404,0.00000176,0.00000351,-0.00000274,-0.
 00000628,-0.00000311,-0.00000092,-0.00000223,-0.00000139\\\@


 I DON'T PRETEND TO UNDERSTAND THE UNIVERSE --
 IT'S A GREAT DEAL BIGGER THAN I AM.
       -- ATTR. TO WILLIAM ALLINGHAM (1828-89)
 Job cpu time:       2 days 10 hours 15 minutes 54.2 seconds.
 Elapsed time:       0 days  2 hours 27 minutes 24.4 seconds.
 File lengths (MBytes):  RWF=   6656 Int=      0 D2E=      0 Chk=     88 Scr=      8
 Normal termination of Gaussian 16 at Sun May  4 19:28:56 2025.
