 Entering Gaussian System, Link 0=/sysapps/ubuntu-applications/gaussian-new/avx/g16//g16
 Input=ts1.in
 Output=ts1.log
 Initial command:
 /sysapps/ubuntu-applications/gaussian-new/avx/g16/l1.exe "/data/temp-scratch/selhajj1/7628950/Gau-3297698.inp" -scrdir="/data/temp-scratch/selhajj1/7628950/"
 Entering Link 1 = /sysapps/ubuntu-applications/gaussian-new/avx/g16/l1.exe PID=   3297700.
  
 Copyright (c) 1988,1990,1992,1993,1995,1998,2003,2009,2016,
            Gaussian, Inc.  All Rights Reserved.
  
 This is part of the Gaussian(R) 16 program.  It is based on
 the Gaussian(R) 09 system (copyright 2009, Gaussian, Inc.),
 the Gaussian(R) 03 system (copyright 2003, Gaussian, Inc.),
 the Gaussian(R) 98 system (copyright 1998, Gaussian, Inc.),
 the Gaussian(R) 94 system (copyright 1995, Gaussian, Inc.),
 the Gaussian 92(TM) system (copyright 1992, Gaussian, Inc.),
 the Gaussian 90(TM) system (copyright 1990, Gaussian, Inc.),
 the Gaussian 88(TM) system (copyright 1988, Gaussian, Inc.),
 the Gaussian 86(TM) system (copyright 1986, Carnegie Mellon
 University), and the Gaussian 82(TM) system (copyright 1983,
 Carnegie Mellon University). Gaussian is a federally registered
 trademark of Gaussian, Inc.
  
 This software contains proprietary and confidential information,
 including trade secrets, belonging to Gaussian, Inc.
  
 This software is provided under written license and may be
 used, copied, transmitted, or stored only in accord with that
 written license.
  
 The following legend is applicable only to US Government
 contracts under FAR:
  
                    RESTRICTED RIGHTS LEGEND
  
 Use, reproduction and disclosure by the US Government is
 subject to restrictions as set forth in subparagraphs (a)
 and (c) of the Commercial Computer Software - Restricted
 Rights clause in FAR 52.227-19.
  
 Gaussian, Inc.
 340 Quinnipiac St., Bldg. 40, Wallingford CT 06492
  
  
 ---------------------------------------------------------------
 Warning -- This program may not be used in any manner that
 competes with the business of Gaussian, Inc. or will provide
 assistance to any competitor of Gaussian, Inc.  The licensee
 of this program is prohibited from giving any competitor of
 Gaussian, Inc. access to this program.  By using this program,
 the user acknowledges that Gaussian, Inc. is engaged in the
 business of creating and licensing software in the field of
 computational chemistry and represents and warrants to the
 licensee that it is not a competitor of Gaussian, Inc. and that
 it will not use this program in any manner prohibited above.
 ---------------------------------------------------------------
  

 Cite this work as:
 Gaussian 16, Revision A.03,
 M. J. Frisch, G. W. Trucks, H. B. Schlegel, G. E. Scuseria, 
 M. A. Robb, J. R. Cheeseman, G. Scalmani, V. Barone, 
 G. A. Petersson, H. Nakatsuji, X. Li, M. Caricato, A. V. Marenich, 
 J. Bloino, B. G. Janesko, R. Gomperts, B. Mennucci, H. P. Hratchian, 
 J. V. Ortiz, A. F. Izmaylov, J. L. Sonnenberg, D. Williams-Young, 
 F. Ding, F. Lipparini, F. Egidi, J. Goings, B. Peng, A. Petrone, 
 T. Henderson, D. Ranasinghe, V. G. Zakrzewski, J. Gao, N. Rega, 
 G. Zheng, W. Liang, M. Hada, M. Ehara, K. Toyota, R. Fukuda, 
 J. Hasegawa, M. Ishida, T. Nakajima, Y. Honda, O. Kitao, H. Nakai, 
 T. Vreven, K. Throssell, J. A. Montgomery, Jr., J. E. Peralta, 
 F. Ogliaro, M. J. Bearpark, J. J. Heyd, E. N. Brothers, K. N. Kudin, 
 V. N. Staroverov, T. A. Keith, R. Kobayashi, J. Normand, 
 K. Raghavachari, A. P. Rendell, J. C. Burant, S. S. Iyengar, 
 J. Tomasi, M. Cossi, J. M. Millam, M. Klene, C. Adamo, R. Cammi, 
 J. W. Ochterski, R. L. Martin, K. Morokuma, O. Farkas, 
 J. B. Foresman, and D. J. Fox, Gaussian, Inc., Wallingford CT, 2016.
 
 ******************************************
 Gaussian 16:  ES64L-G16RevA.03 25-Dec-2016
                 3-Mar-2025 
 ******************************************
 %chk=ts1.chk
 %mem=616Gb
 %nprocshared=24
 Will use up to   24 processors via shared memory.
 ----------------------------------------------------------------------
 #opt=(calcfc,modred) freq UMN15/genecp scf=(maxcyc=500) scrf=(smd,solv
 ent=DiChloroEthane)
 ----------------------------------------------------------------------
 1/10=4,18=120,19=15,26=3,38=1/1,3;
 2/9=110,12=2,17=6,18=5,40=1/2;
 3/5=7,11=2,16=1,17=8,25=1,30=1,70=32201,71=2,72=10,74=-73,116=2,140=1/1,2,3;
 4//1;
 5/5=2,7=500,38=5,53=10/2;
 8/6=4,10=90,11=11/1;
 11/6=1,8=1,9=11,15=111,16=1/1,2,10;
 10/6=1,13=1/2;
 6/7=2,8=2,9=2,10=2,28=1/1;
 7/10=1,18=20,25=1/1,2,3,16;
 1/10=4,18=20,19=15,26=3/3(2);
 2/9=110/2;
 99//99;
 2/9=110/2;
 3/5=7,6=1,11=2,16=1,17=8,25=1,30=1,70=32205,71=1,72=10,74=-73,82=7,116=2/1,2,3;
 4/5=5,16=3,69=1/1;
 5/5=2,7=500,38=5,53=10/2;
 7//1,2,3,16;
 1/18=20,19=15,26=3/3(-5);
 2/9=110/2;
 6/7=2,8=2,9=2,10=2,19=2,28=1/1;
 99/9=1/99;
 --------------------------------------------------------------
 ts opt for opening the ring and forming bond between C7 and C8
 --------------------------------------------------------------
 Symbolic Z-matrix:
 Charge =  0 Multiplicity = 2
 C                    -4.31174  -0.7792   -0.7602 
 C                    -4.97699   0.05821  -1.70635 
 C                    -5.84557   1.02265  -1.24411 
 C                    -6.05594   1.16956   0.14499 
 C                    -5.42208   0.33458   1.08554 
 C                    -4.56566  -0.64891   0.64047 
 C                    -3.3964   -1.78214  -1.1371 
 C                    -1.82515  -1.42819  -1.97051 
 O                    -2.9963   -1.95506  -2.44041 
 C                    -0.78814  -2.35836  -1.42002 
 C                    -1.46547  -0.01308  -2.28417 
 H                    -4.80014  -0.0915   -2.77171 
 H                    -6.37546   1.67151  -1.94267 
 H                    -6.738     1.94656   0.49775 
 H                    -5.60889   0.46827   2.1518 
 H                    -4.05297  -1.3213    1.33053 
 H                    -3.10681  -2.56315  -0.41957 
 O                    -0.38962   0.47068  -1.98423 
 O                     0.25865  -1.96764  -0.94184 
 Yb                    0.98907   0.24119   0.0445 
 O                    -1.15875  -3.60993  -1.47985 
 O                    -2.41374   0.62784  -2.91129 
 C                    -0.27504  -4.55165  -0.84779 
 C                    -2.17823   2.02243  -3.17463 
 H                    -0.756    -5.5299   -0.93778 
 H                    -0.14766  -4.27034   0.20649 
 H                     0.69821  -4.54802  -1.35561 
 H                    -3.13476   2.43477  -3.51029 
 H                    -1.41763   2.12444  -3.96006 
 H                    -1.82769   2.52042  -2.26091 
 O                    -0.29707   2.43909   0.19567 
 O                     0.4351   -1.48128   1.90649 
 O                     2.78389  -0.54968  -1.51897 
 S                     3.84787  -0.65626  -0.49392 
 S                     0.7093    3.23746  -0.54549 
 S                    -1.02844  -1.38798   1.74797 
 O                     3.32229  -0.18311   0.81297 
 O                     5.17646  -0.21813  -0.86433 
 O                     1.84754   2.36631  -0.92791 
 O                     0.20673   4.15251  -1.55126 
 O                    -1.38395  -0.3135    0.78575 
 O                    -1.7604   -2.63738   1.55824 
 C                    -1.5918   -0.72413   3.36615 
 C                     1.43854   4.29943   0.76265 
 C                     4.00093  -2.46905  -0.2381 
 F                    -2.90396  -0.5332    3.35061 
 F                    -0.98944   0.43179   3.59212 
 F                    -1.28835  -1.5745    4.32955 
 F                     1.92317   3.53197   1.73249 
 F                     0.51239   5.09837   1.27022 
 F                     2.41928   5.03412   0.26434 
 F                     2.84048  -2.97139   0.16183 
 F                     4.91889  -2.72178   0.68271 
 F                     4.35407  -3.05713  -1.37204 
 
 The following ModRedundant input section has been read:
 B       7       8 F                                                           
 B       7       8 F                                                           
 

 GradGradGradGradGradGradGradGradGradGradGradGradGradGradGradGradGradGrad
 Berny optimization.
 Initialization pass.
                           ----------------------------
                           !    Initial Parameters    !
                           ! (Angstroms and Degrees)  !
 --------------------------                            --------------------------
 ! Name  Definition              Value          Derivative Info.                !
 --------------------------------------------------------------------------------
 ! R1    R(1,2)                  1.4279         calculate D2E/DX2 analytically  !
 ! R2    R(1,6)                  1.4295         calculate D2E/DX2 analytically  !
 ! R3    R(1,7)                  1.4092         calculate D2E/DX2 analytically  !
 ! R4    R(2,3)                  1.3778         calculate D2E/DX2 analytically  !
 ! R5    R(2,12)                 1.0903         calculate D2E/DX2 analytically  !
 ! R6    R(3,4)                  1.4126         calculate D2E/DX2 analytically  !
 ! R7    R(3,13)                 1.0908         calculate D2E/DX2 analytically  !
 ! R8    R(4,5)                  1.4084         calculate D2E/DX2 analytically  !
 ! R9    R(4,14)                 1.0924         calculate D2E/DX2 analytically  !
 ! R10   R(5,6)                  1.378          calculate D2E/DX2 analytically  !
 ! R11   R(5,15)                 1.0907         calculate D2E/DX2 analytically  !
 ! R12   R(6,16)                 1.0914         calculate D2E/DX2 analytically  !
 ! R13   R(7,8)                  1.8135         frozen, calculate D2E/DX2 analyt!
 ! R14   R(7,9)                  1.3743         calculate D2E/DX2 analytically  !
 ! R15   R(7,17)                 1.0994         calculate D2E/DX2 analytically  !
 ! R16   R(8,9)                  1.3675         calculate D2E/DX2 analytically  !
 ! R17   R(8,10)                 1.4979         calculate D2E/DX2 analytically  !
 ! R18   R(8,11)                 1.4934         calculate D2E/DX2 analytically  !
 ! R19   R(10,19)                1.2154         calculate D2E/DX2 analytically  !
 ! R20   R(10,21)                1.3067         calculate D2E/DX2 analytically  !
 ! R21   R(11,18)                1.2171         calculate D2E/DX2 analytically  !
 ! R22   R(11,22)                1.3051         calculate D2E/DX2 analytically  !
 ! R23   R(18,20)                2.4636         calculate D2E/DX2 analytically  !
 ! R24   R(19,20)                2.5269         calculate D2E/DX2 analytically  !
 ! R25   R(20,31)                2.551          calculate D2E/DX2 analytically  !
 ! R26   R(20,33)                2.5082         calculate D2E/DX2 analytically  !
 ! R27   R(20,34)                3.0443         calculate D2E/DX2 analytically  !
 ! R28   R(20,35)                3.0666         calculate D2E/DX2 analytically  !
 ! R29   R(20,37)                2.4929         calculate D2E/DX2 analytically  !
 ! R30   R(20,39)                2.4897         calculate D2E/DX2 analytically  !
 ! R31   R(20,41)                2.5472         calculate D2E/DX2 analytically  !
 ! R32   R(21,23)                1.4378         calculate D2E/DX2 analytically  !
 ! R33   R(22,24)                1.4386         calculate D2E/DX2 analytically  !
 ! R34   R(23,25)                1.0938         calculate D2E/DX2 analytically  !
 ! R35   R(23,26)                1.0986         calculate D2E/DX2 analytically  !
 ! R36   R(23,27)                1.0978         calculate D2E/DX2 analytically  !
 ! R37   R(24,28)                1.0944         calculate D2E/DX2 analytically  !
 ! R38   R(24,29)                1.0981         calculate D2E/DX2 analytically  !
 ! R39   R(24,30)                1.0981         calculate D2E/DX2 analytically  !
 ! R40   R(31,35)                1.4831         calculate D2E/DX2 analytically  !
 ! R41   R(32,36)                1.4751         calculate D2E/DX2 analytically  !
 ! R42   R(33,34)                1.4813         calculate D2E/DX2 analytically  !
 ! R43   R(34,37)                1.486          calculate D2E/DX2 analytically  !
 ! R44   R(34,38)                1.4472         calculate D2E/DX2 analytically  !
 ! R45   R(34,45)                1.8371         calculate D2E/DX2 analytically  !
 ! R46   R(35,39)                1.4835         calculate D2E/DX2 analytically  !
 ! R47   R(35,40)                1.4497         calculate D2E/DX2 analytically  !
 ! R48   R(35,44)                1.836          calculate D2E/DX2 analytically  !
 ! R49   R(36,41)                1.4855         calculate D2E/DX2 analytically  !
 ! R50   R(36,42)                1.4604         calculate D2E/DX2 analytically  !
 ! R51   R(36,43)                1.8375         calculate D2E/DX2 analytically  !
 ! R52   R(43,46)                1.3261         calculate D2E/DX2 analytically  !
 ! R53   R(43,47)                1.3229         calculate D2E/DX2 analytically  !
 ! R54   R(43,48)                1.3204         calculate D2E/DX2 analytically  !
 ! R55   R(44,49)                1.3283         calculate D2E/DX2 analytically  !
 ! R56   R(44,50)                1.3243         calculate D2E/DX2 analytically  !
 ! R57   R(44,51)                1.3229         calculate D2E/DX2 analytically  !
 ! R58   R(45,52)                1.3262         calculate D2E/DX2 analytically  !
 ! R59   R(45,53)                1.3245         calculate D2E/DX2 analytically  !
 ! R60   R(45,54)                1.3253         calculate D2E/DX2 analytically  !
 ! A1    A(2,1,6)              120.8671         calculate D2E/DX2 analytically  !
 ! A2    A(2,1,7)              122.8734         calculate D2E/DX2 analytically  !
 ! A3    A(6,1,7)              116.2524         calculate D2E/DX2 analytically  !
 ! A4    A(1,2,3)              118.8111         calculate D2E/DX2 analytically  !
 ! A5    A(1,2,12)             119.4301         calculate D2E/DX2 analytically  !
 ! A6    A(3,2,12)             121.7498         calculate D2E/DX2 analytically  !
 ! A7    A(2,3,4)              119.7753         calculate D2E/DX2 analytically  !
 ! A8    A(2,3,13)             120.5176         calculate D2E/DX2 analytically  !
 ! A9    A(4,3,13)             119.7067         calculate D2E/DX2 analytically  !
 ! A10   A(3,4,5)              121.8721         calculate D2E/DX2 analytically  !
 ! A11   A(3,4,14)             118.9798         calculate D2E/DX2 analytically  !
 ! A12   A(5,4,14)             119.1449         calculate D2E/DX2 analytically  !
 ! A13   A(4,5,6)              119.1533         calculate D2E/DX2 analytically  !
 ! A14   A(4,5,15)             120.2049         calculate D2E/DX2 analytically  !
 ! A15   A(6,5,15)             120.6418         calculate D2E/DX2 analytically  !
 ! A16   A(1,6,5)              119.4682         calculate D2E/DX2 analytically  !
 ! A17   A(1,6,16)             118.6817         calculate D2E/DX2 analytically  !
 ! A18   A(5,6,16)             121.8338         calculate D2E/DX2 analytically  !
 ! A19   A(1,7,8)              123.148          calculate D2E/DX2 analytically  !
 ! A20   A(1,7,9)              122.1622         calculate D2E/DX2 analytically  !
 ! A21   A(1,7,17)             120.1415         calculate D2E/DX2 analytically  !
 ! A22   A(8,7,17)             102.1438         calculate D2E/DX2 analytically  !
 ! A23   A(9,7,17)             116.9286         calculate D2E/DX2 analytically  !
 ! A24   A(7,8,10)             108.044          calculate D2E/DX2 analytically  !
 ! A25   A(7,8,11)             119.3495         calculate D2E/DX2 analytically  !
 ! A26   A(9,8,10)             118.6822         calculate D2E/DX2 analytically  !
 ! A27   A(9,8,11)             119.9458         calculate D2E/DX2 analytically  !
 ! A28   A(10,8,11)            119.9258         calculate D2E/DX2 analytically  !
 ! A29   A(8,10,19)            122.7693         calculate D2E/DX2 analytically  !
 ! A30   A(8,10,21)            112.434          calculate D2E/DX2 analytically  !
 ! A31   A(19,10,21)           124.7668         calculate D2E/DX2 analytically  !
 ! A32   A(8,11,18)            122.5302         calculate D2E/DX2 analytically  !
 ! A33   A(8,11,22)            113.0335         calculate D2E/DX2 analytically  !
 ! A34   A(18,11,22)           124.4347         calculate D2E/DX2 analytically  !
 ! A35   A(11,18,20)           131.3434         calculate D2E/DX2 analytically  !
 ! A36   A(10,19,20)           133.1223         calculate D2E/DX2 analytically  !
 ! A37   A(18,20,19)            66.3108         calculate D2E/DX2 analytically  !
 ! A38   A(18,20,31)            71.7233         calculate D2E/DX2 analytically  !
 ! A39   A(18,20,33)            85.2112         calculate D2E/DX2 analytically  !
 ! A40   A(18,20,34)           114.0379         calculate D2E/DX2 analytically  !
 ! A41   A(18,20,35)            72.512          calculate D2E/DX2 analytically  !
 ! A42   A(18,20,37)           142.5133         calculate D2E/DX2 analytically  !
 ! A43   A(18,20,39)            77.9843         calculate D2E/DX2 analytically  !
 ! A44   A(18,20,41)            74.8446         calculate D2E/DX2 analytically  !
 ! A45   A(19,20,31)           129.0881         calculate D2E/DX2 analytically  !
 ! A46   A(19,20,33)            71.8149         calculate D2E/DX2 analytically  !
 ! A47   A(19,20,34)            86.8311         calculate D2E/DX2 analytically  !
 ! A48   A(19,20,35)           138.8166         calculate D2E/DX2 analytically  !
 ! A49   A(19,20,37)           104.01           calculate D2E/DX2 analytically  !
 ! A50   A(19,20,39)           133.8941         calculate D2E/DX2 analytically  !
 ! A51   A(19,20,41)            69.754          calculate D2E/DX2 analytically  !
 ! A52   A(31,20,33)           132.018          calculate D2E/DX2 analytically  !
 ! A53   A(31,20,34)           137.5532         calculate D2E/DX2 analytically  !
 ! A54   A(31,20,37)           126.8878         calculate D2E/DX2 analytically  !
 ! A55   A(31,20,39)            57.4239         calculate D2E/DX2 analytically  !
 ! A56   A(31,20,41)            72.5836         calculate D2E/DX2 analytically  !
 ! A57   A(33,20,35)           104.681          calculate D2E/DX2 analytically  !
 ! A58   A(33,20,37)            57.91           calculate D2E/DX2 analytically  !
 ! A59   A(33,20,39)            77.2292         calculate D2E/DX2 analytically  !
 ! A60   A(33,20,41)           141.2017         calculate D2E/DX2 analytically  !
 ! A61   A(34,20,35)           109.8573         calculate D2E/DX2 analytically  !
 ! A62   A(34,20,39)            81.8803         calculate D2E/DX2 analytically  !
 ! A63   A(34,20,41)           149.5534         calculate D2E/DX2 analytically  !
 ! A64   A(35,20,37)           108.1193         calculate D2E/DX2 analytically  !
 ! A65   A(35,20,41)           100.5889         calculate D2E/DX2 analytically  !
 ! A66   A(37,20,39)            86.73           calculate D2E/DX2 analytically  !
 ! A67   A(37,20,41)           138.174          calculate D2E/DX2 analytically  !
 ! A68   A(39,20,41)           128.3711         calculate D2E/DX2 analytically  !
 ! A69   A(10,21,23)           115.652          calculate D2E/DX2 analytically  !
 ! A70   A(11,22,24)           116.4275         calculate D2E/DX2 analytically  !
 ! A71   A(21,23,25)           106.2218         calculate D2E/DX2 analytically  !
 ! A72   A(21,23,26)           108.9911         calculate D2E/DX2 analytically  !
 ! A73   A(21,23,27)           109.8398         calculate D2E/DX2 analytically  !
 ! A74   A(25,23,26)           111.036          calculate D2E/DX2 analytically  !
 ! A75   A(25,23,27)           110.7772         calculate D2E/DX2 analytically  !
 ! A76   A(26,23,27)           109.8947         calculate D2E/DX2 analytically  !
 ! A77   A(22,24,28)           106.1587         calculate D2E/DX2 analytically  !
 ! A78   A(22,24,29)           109.5342         calculate D2E/DX2 analytically  !
 ! A79   A(22,24,30)           109.8506         calculate D2E/DX2 analytically  !
 ! A80   A(28,24,29)           110.5495         calculate D2E/DX2 analytically  !
 ! A81   A(28,24,30)           111.3078         calculate D2E/DX2 analytically  !
 ! A82   A(29,24,30)           109.3869         calculate D2E/DX2 analytically  !
 ! A83   A(20,34,38)           144.897          calculate D2E/DX2 analytically  !
 ! A84   A(20,34,45)           110.1508         calculate D2E/DX2 analytically  !
 ! A85   A(33,34,37)           109.3688         calculate D2E/DX2 analytically  !
 ! A86   A(33,34,38)           117.4208         calculate D2E/DX2 analytically  !
 ! A87   A(33,34,45)           103.1324         calculate D2E/DX2 analytically  !
 ! A88   A(37,34,38)           116.9637         calculate D2E/DX2 analytically  !
 ! A89   A(37,34,45)           102.7793         calculate D2E/DX2 analytically  !
 ! A90   A(38,34,45)           104.9455         calculate D2E/DX2 analytically  !
 ! A91   A(20,35,40)           141.431          calculate D2E/DX2 analytically  !
 ! A92   A(20,35,44)           113.0692         calculate D2E/DX2 analytically  !
 ! A93   A(31,35,39)           109.4726         calculate D2E/DX2 analytically  !
 ! A94   A(31,35,40)           116.8254         calculate D2E/DX2 analytically  !
 ! A95   A(31,35,44)           102.993          calculate D2E/DX2 analytically  !
 ! A96   A(39,35,40)           117.2468         calculate D2E/DX2 analytically  !
 ! A97   A(39,35,44)           102.6262         calculate D2E/DX2 analytically  !
 ! A98   A(40,35,44)           105.4817         calculate D2E/DX2 analytically  !
 ! A99   A(32,36,41)           110.6593         calculate D2E/DX2 analytically  !
 ! A100  A(32,36,42)           117.2029         calculate D2E/DX2 analytically  !
 ! A101  A(32,36,43)           103.4387         calculate D2E/DX2 analytically  !
 ! A102  A(41,36,42)           114.5004         calculate D2E/DX2 analytically  !
 ! A103  A(41,36,43)           103.6347         calculate D2E/DX2 analytically  !
 ! A104  A(42,36,43)           105.6533         calculate D2E/DX2 analytically  !
 ! A105  A(20,41,36)            97.0678         calculate D2E/DX2 analytically  !
 ! A106  A(36,43,46)           110.1854         calculate D2E/DX2 analytically  !
 ! A107  A(36,43,47)           109.056          calculate D2E/DX2 analytically  !
 ! A108  A(36,43,48)           109.8409         calculate D2E/DX2 analytically  !
 ! A109  A(46,43,47)           109.0718         calculate D2E/DX2 analytically  !
 ! A110  A(46,43,48)           109.1898         calculate D2E/DX2 analytically  !
 ! A111  A(47,43,48)           109.4798         calculate D2E/DX2 analytically  !
 ! A112  A(35,44,49)           109.3255         calculate D2E/DX2 analytically  !
 ! A113  A(35,44,50)           110.1375         calculate D2E/DX2 analytically  !
 ! A114  A(35,44,51)           110.3236         calculate D2E/DX2 analytically  !
 ! A115  A(49,44,50)           108.8981         calculate D2E/DX2 analytically  !
 ! A116  A(49,44,51)           108.9914         calculate D2E/DX2 analytically  !
 ! A117  A(50,44,51)           109.1361         calculate D2E/DX2 analytically  !
 ! A118  A(34,45,52)           110.05           calculate D2E/DX2 analytically  !
 ! A119  A(34,45,53)           110.0485         calculate D2E/DX2 analytically  !
 ! A120  A(34,45,54)           109.9324         calculate D2E/DX2 analytically  !
 ! A121  A(52,45,53)           108.9355         calculate D2E/DX2 analytically  !
 ! A122  A(52,45,54)           108.8501         calculate D2E/DX2 analytically  !
 ! A123  A(53,45,54)           108.9948         calculate D2E/DX2 analytically  !
 ! D1    D(6,1,2,3)              1.6986         calculate D2E/DX2 analytically  !
 ! D2    D(6,1,2,12)          -177.2295         calculate D2E/DX2 analytically  !
 ! D3    D(7,1,2,3)           -179.3089         calculate D2E/DX2 analytically  !
 ! D4    D(7,1,2,12)             1.763          calculate D2E/DX2 analytically  !
 ! D5    D(2,1,6,5)             -2.6895         calculate D2E/DX2 analytically  !
 ! D6    D(2,1,6,16)           178.75           calculate D2E/DX2 analytically  !
 ! D7    D(7,1,6,5)            178.254          calculate D2E/DX2 analytically  !
 ! D8    D(7,1,6,16)            -0.3065         calculate D2E/DX2 analytically  !
 ! D9    D(2,1,7,8)             63.6503         calculate D2E/DX2 analytically  !
 ! D10   D(2,1,7,9)              5.3518         calculate D2E/DX2 analytically  !
 ! D11   D(2,1,7,17)          -164.3017         calculate D2E/DX2 analytically  !
 ! D12   D(6,1,7,8)           -117.314          calculate D2E/DX2 analytically  !
 ! D13   D(6,1,7,9)           -175.6125         calculate D2E/DX2 analytically  !
 ! D14   D(6,1,7,17)            14.734          calculate D2E/DX2 analytically  !
 ! D15   D(1,2,3,4)              0.3166         calculate D2E/DX2 analytically  !
 ! D16   D(1,2,3,13)          -179.4418         calculate D2E/DX2 analytically  !
 ! D17   D(12,2,3,4)           179.2187         calculate D2E/DX2 analytically  !
 ! D18   D(12,2,3,13)           -0.5396         calculate D2E/DX2 analytically  !
 ! D19   D(2,3,4,5)             -1.3987         calculate D2E/DX2 analytically  !
 ! D20   D(2,3,4,14)           179.2531         calculate D2E/DX2 analytically  !
 ! D21   D(13,3,4,5)           178.3616         calculate D2E/DX2 analytically  !
 ! D22   D(13,3,4,14)           -0.9866         calculate D2E/DX2 analytically  !
 ! D23   D(3,4,5,6)              0.4058         calculate D2E/DX2 analytically  !
 ! D24   D(3,4,5,15)          -179.6283         calculate D2E/DX2 analytically  !
 ! D25   D(14,4,5,6)           179.753          calculate D2E/DX2 analytically  !
 ! D26   D(14,4,5,15)           -0.2812         calculate D2E/DX2 analytically  !
 ! D27   D(4,5,6,1)              1.6051         calculate D2E/DX2 analytically  !
 ! D28   D(4,5,6,16)          -179.8814         calculate D2E/DX2 analytically  !
 ! D29   D(15,5,6,1)          -178.3606         calculate D2E/DX2 analytically  !
 ! D30   D(15,5,6,16)            0.1529         calculate D2E/DX2 analytically  !
 ! D31   D(1,7,8,10)           141.6136         calculate D2E/DX2 analytically  !
 ! D32   D(1,7,8,11)            -0.1188         calculate D2E/DX2 analytically  !
 ! D33   D(17,7,8,10)            2.6758         calculate D2E/DX2 analytically  !
 ! D34   D(17,7,8,11)         -139.0567         calculate D2E/DX2 analytically  !
 ! D35   D(7,8,10,19)         -125.1719         calculate D2E/DX2 analytically  !
 ! D36   D(7,8,10,21)           52.9228         calculate D2E/DX2 analytically  !
 ! D37   D(9,8,10,19)         -177.4239         calculate D2E/DX2 analytically  !
 ! D38   D(9,8,10,21)            0.6707         calculate D2E/DX2 analytically  !
 ! D39   D(11,8,10,19)          16.3007         calculate D2E/DX2 analytically  !
 ! D40   D(11,8,10,21)        -165.6046         calculate D2E/DX2 analytically  !
 ! D41   D(7,8,11,18)          129.415          calculate D2E/DX2 analytically  !
 ! D42   D(7,8,11,22)          -51.0162         calculate D2E/DX2 analytically  !
 ! D43   D(9,8,11,18)         -173.8839         calculate D2E/DX2 analytically  !
 ! D44   D(9,8,11,22)            5.6849         calculate D2E/DX2 analytically  !
 ! D45   D(10,8,11,18)          -7.783          calculate D2E/DX2 analytically  !
 ! D46   D(10,8,11,22)         171.7858         calculate D2E/DX2 analytically  !
 ! D47   D(8,10,19,20)          21.9552         calculate D2E/DX2 analytically  !
 ! D48   D(21,10,19,20)       -155.9009         calculate D2E/DX2 analytically  !
 ! D49   D(8,10,21,23)        -173.9657         calculate D2E/DX2 analytically  !
 ! D50   D(19,10,21,23)          4.084          calculate D2E/DX2 analytically  !
 ! D51   D(8,11,18,20)         -40.4526         calculate D2E/DX2 analytically  !
 ! D52   D(22,11,18,20)        140.0285         calculate D2E/DX2 analytically  !
 ! D53   D(8,11,22,24)         176.1884         calculate D2E/DX2 analytically  !
 ! D54   D(18,11,22,24)         -4.2524         calculate D2E/DX2 analytically  !
 ! D55   D(11,18,20,19)         50.8868         calculate D2E/DX2 analytically  !
 ! D56   D(11,18,20,31)        -99.5733         calculate D2E/DX2 analytically  !
 ! D57   D(11,18,20,33)        123.1141         calculate D2E/DX2 analytically  !
 ! D58   D(11,18,20,34)        125.7106         calculate D2E/DX2 analytically  !
 ! D59   D(11,18,20,35)       -129.8455         calculate D2E/DX2 analytically  !
 ! D60   D(11,18,20,37)        132.9746         calculate D2E/DX2 analytically  !
 ! D61   D(11,18,20,39)       -158.9475         calculate D2E/DX2 analytically  !
 ! D62   D(11,18,20,41)        -23.2898         calculate D2E/DX2 analytically  !
 ! D63   D(10,19,20,18)        -41.392          calculate D2E/DX2 analytically  !
 ! D64   D(10,19,20,31)         -4.2956         calculate D2E/DX2 analytically  !
 ! D65   D(10,19,20,33)       -134.1528         calculate D2E/DX2 analytically  !
 ! D66   D(10,19,20,34)       -159.413          calculate D2E/DX2 analytically  !
 ! D67   D(10,19,20,35)        -42.4528         calculate D2E/DX2 analytically  !
 ! D68   D(10,19,20,37)        177.0165         calculate D2E/DX2 analytically  !
 ! D69   D(10,19,20,39)        -83.8648         calculate D2E/DX2 analytically  !
 ! D70   D(10,19,20,41)         40.4173         calculate D2E/DX2 analytically  !
 ! D71   D(18,20,34,38)         83.6084         calculate D2E/DX2 analytically  !
 ! D72   D(18,20,34,45)        -97.5658         calculate D2E/DX2 analytically  !
 ! D73   D(19,20,34,38)        145.8791         calculate D2E/DX2 analytically  !
 ! D74   D(19,20,34,45)        -35.295          calculate D2E/DX2 analytically  !
 ! D75   D(31,20,34,38)         -5.1806         calculate D2E/DX2 analytically  !
 ! D76   D(31,20,34,45)        173.6452         calculate D2E/DX2 analytically  !
 ! D77   D(35,20,34,38)          4.4888         calculate D2E/DX2 analytically  !
 ! D78   D(35,20,34,45)       -176.6853         calculate D2E/DX2 analytically  !
 ! D79   D(39,20,34,38)         10.6995         calculate D2E/DX2 analytically  !
 ! D80   D(39,20,34,45)       -170.4747         calculate D2E/DX2 analytically  !
 ! D81   D(41,20,34,38)       -175.2115         calculate D2E/DX2 analytically  !
 ! D82   D(41,20,34,45)          3.6143         calculate D2E/DX2 analytically  !
 ! D83   D(18,20,35,40)         -7.7513         calculate D2E/DX2 analytically  !
 ! D84   D(18,20,35,44)        174.12           calculate D2E/DX2 analytically  !
 ! D85   D(19,20,35,40)         -6.7328         calculate D2E/DX2 analytically  !
 ! D86   D(19,20,35,44)        175.1385         calculate D2E/DX2 analytically  !
 ! D87   D(33,20,35,40)         72.2848         calculate D2E/DX2 analytically  !
 ! D88   D(33,20,35,44)       -105.844          calculate D2E/DX2 analytically  !
 ! D89   D(34,20,35,40)        102.1434         calculate D2E/DX2 analytically  !
 ! D90   D(34,20,35,44)        -75.9853         calculate D2E/DX2 analytically  !
 ! D91   D(37,20,35,40)        132.8058         calculate D2E/DX2 analytically  !
 ! D92   D(37,20,35,44)        -45.323          calculate D2E/DX2 analytically  !
 ! D93   D(41,20,35,40)        -78.011          calculate D2E/DX2 analytically  !
 ! D94   D(41,20,35,44)        103.8602         calculate D2E/DX2 analytically  !
 ! D95   D(18,20,41,36)        143.1871         calculate D2E/DX2 analytically  !
 ! D96   D(19,20,41,36)         73.2932         calculate D2E/DX2 analytically  !
 ! D97   D(31,20,41,36)       -141.6191         calculate D2E/DX2 analytically  !
 ! D98   D(33,20,41,36)         81.5424         calculate D2E/DX2 analytically  !
 ! D99   D(34,20,41,36)         31.3473         calculate D2E/DX2 analytically  !
 ! D100  D(35,20,41,36)       -148.366          calculate D2E/DX2 analytically  !
 ! D101  D(37,20,41,36)        -15.2618         calculate D2E/DX2 analytically  !
 ! D102  D(39,20,41,36)       -156.1245         calculate D2E/DX2 analytically  !
 ! D103  D(10,21,23,25)        176.8024         calculate D2E/DX2 analytically  !
 ! D104  D(10,21,23,26)         57.1007         calculate D2E/DX2 analytically  !
 ! D105  D(10,21,23,27)        -63.3477         calculate D2E/DX2 analytically  !
 ! D106  D(11,22,24,28)       -168.7623         calculate D2E/DX2 analytically  !
 ! D107  D(11,22,24,29)         71.8595         calculate D2E/DX2 analytically  !
 ! D108  D(11,22,24,30)        -48.3097         calculate D2E/DX2 analytically  !
 ! D109  D(20,34,45,52)         -1.8379         calculate D2E/DX2 analytically  !
 ! D110  D(20,34,45,53)       -121.8979         calculate D2E/DX2 analytically  !
 ! D111  D(20,34,45,54)        118.0431         calculate D2E/DX2 analytically  !
 ! D112  D(33,34,45,52)        -59.0515         calculate D2E/DX2 analytically  !
 ! D113  D(33,34,45,53)       -179.1114         calculate D2E/DX2 analytically  !
 ! D114  D(33,34,45,54)         60.8295         calculate D2E/DX2 analytically  !
 ! D115  D(37,34,45,52)         54.6594         calculate D2E/DX2 analytically  !
 ! D116  D(37,34,45,53)        -65.4006         calculate D2E/DX2 analytically  !
 ! D117  D(37,34,45,54)        174.5404         calculate D2E/DX2 analytically  !
 ! D118  D(38,34,45,52)        177.4633         calculate D2E/DX2 analytically  !
 ! D119  D(38,34,45,53)         57.4033         calculate D2E/DX2 analytically  !
 ! D120  D(38,34,45,54)        -62.6557         calculate D2E/DX2 analytically  !
 ! D121  D(20,35,44,49)         -1.3656         calculate D2E/DX2 analytically  !
 ! D122  D(20,35,44,50)       -120.9807         calculate D2E/DX2 analytically  !
 ! D123  D(20,35,44,51)        118.4785         calculate D2E/DX2 analytically  !
 ! D124  D(31,35,44,49)         56.8558         calculate D2E/DX2 analytically  !
 ! D125  D(31,35,44,50)        -62.7593         calculate D2E/DX2 analytically  !
 ! D126  D(31,35,44,51)        176.6999         calculate D2E/DX2 analytically  !
 ! D127  D(39,35,44,49)        -56.865          calculate D2E/DX2 analytically  !
 ! D128  D(39,35,44,50)       -176.4801         calculate D2E/DX2 analytically  !
 ! D129  D(39,35,44,51)         62.9791         calculate D2E/DX2 analytically  !
 ! D130  D(40,35,44,49)        179.8448         calculate D2E/DX2 analytically  !
 ! D131  D(40,35,44,50)         60.2297         calculate D2E/DX2 analytically  !
 ! D132  D(40,35,44,51)        -60.3111         calculate D2E/DX2 analytically  !
 ! D133  D(32,36,41,20)          6.4509         calculate D2E/DX2 analytically  !
 ! D134  D(42,36,41,20)       -128.6817         calculate D2E/DX2 analytically  !
 ! D135  D(43,36,41,20)        116.7574         calculate D2E/DX2 analytically  !
 ! D136  D(32,36,43,46)        177.4263         calculate D2E/DX2 analytically  !
 ! D137  D(32,36,43,47)         57.7361         calculate D2E/DX2 analytically  !
 ! D138  D(32,36,43,48)        -62.2448         calculate D2E/DX2 analytically  !
 ! D139  D(41,36,43,46)         61.8811         calculate D2E/DX2 analytically  !
 ! D140  D(41,36,43,47)        -57.8091         calculate D2E/DX2 analytically  !
 ! D141  D(41,36,43,48)       -177.79           calculate D2E/DX2 analytically  !
 ! D142  D(42,36,43,46)        -58.8582         calculate D2E/DX2 analytically  !
 ! D143  D(42,36,43,47)       -178.5483         calculate D2E/DX2 analytically  !
 ! D144  D(42,36,43,48)         61.4708         calculate D2E/DX2 analytically  !
 --------------------------------------------------------------------------------
 Trust Radius=3.00D-01 FncErr=1.00D-07 GrdErr=1.00D-06 EigMax=2.50D+02 EigMin=1.00D-04
 Number of steps in this run=    324 maximum allowed number of steps=    324.
 GradGradGradGradGradGradGradGradGradGradGradGradGradGradGradGradGradGrad

 Stoichiometry    C15H12F9O14S3Yb(2)
 Framework group  C1[X(C15H12F9O14S3Yb)]
 Deg. of freedom   156
 Full point group                 C1      NOp   1
 Largest Abelian subgroup         C1      NOp   1
 Largest concise Abelian subgroup C1      NOp   1
                         Standard orientation:                         
 ---------------------------------------------------------------------
 Center     Atomic      Atomic             Coordinates (Angstroms)
 Number     Number       Type             X           Y           Z
 ---------------------------------------------------------------------
      1          6           0       -4.311743   -0.779198   -0.760204
      2          6           0       -4.976987    0.058213   -1.706346
      3          6           0       -5.845573    1.022651   -1.244114
      4          6           0       -6.055939    1.169565    0.144987
      5          6           0       -5.422081    0.334584    1.085545
      6          6           0       -4.565658   -0.648907    0.640474
      7          6           0       -3.396398   -1.782136   -1.137103
      8          6           0       -1.825148   -1.428191   -1.970513
      9          8           0       -2.996295   -1.955061   -2.440412
     10          6           0       -0.788144   -2.358356   -1.420022
     11          6           0       -1.465472   -0.013082   -2.284165
     12          1           0       -4.800137   -0.091496   -2.771705
     13          1           0       -6.375459    1.671515   -1.942674
     14          1           0       -6.738001    1.946557    0.497749
     15          1           0       -5.608889    0.468268    2.151804
     16          1           0       -4.052971   -1.321299    1.330527
     17          1           0       -3.106807   -2.563150   -0.419567
     18          8           0       -0.389618    0.470682   -1.984226
     19          8           0        0.258647   -1.967640   -0.941840
     20         70           0        0.989073    0.241193    0.044503
     21          8           0       -1.158753   -3.609926   -1.479851
     22          8           0       -2.413742    0.627841   -2.911288
     23          6           0       -0.275041   -4.551649   -0.847793
     24          6           0       -2.178229    2.022432   -3.174626
     25          1           0       -0.756003   -5.529899   -0.937775
     26          1           0       -0.147660   -4.270335    0.206488
     27          1           0        0.698214   -4.548025   -1.355613
     28          1           0       -3.134756    2.434765   -3.510291
     29          1           0       -1.417633    2.124442   -3.960064
     30          1           0       -1.827693    2.520418   -2.260905
     31          8           0       -0.297070    2.439091    0.195673
     32          8           0        0.435104   -1.481277    1.906488
     33          8           0        2.783889   -0.549683   -1.518969
     34         16           0        3.847874   -0.656263   -0.493916
     35         16           0        0.709303    3.237462   -0.545485
     36         16           0       -1.028437   -1.387978    1.747971
     37          8           0        3.322294   -0.183107    0.812972
     38          8           0        5.176458   -0.218127   -0.864333
     39          8           0        1.847538    2.366308   -0.927908
     40          8           0        0.206725    4.152513   -1.551264
     41          8           0       -1.383953   -0.313495    0.785745
     42          8           0       -1.760399   -2.637380    1.558243
     43          6           0       -1.591799   -0.724131    3.366154
     44          6           0        1.438538    4.299430    0.762652
     45          6           0        4.000927   -2.469053   -0.238096
     46          9           0       -2.903959   -0.533197    3.350606
     47          9           0       -0.989437    0.431787    3.592124
     48          9           0       -1.288354   -1.574502    4.329548
     49          9           0        1.923166    3.531972    1.732486
     50          9           0        0.512391    5.098371    1.270221
     51          9           0        2.419283    5.034121    0.264339
     52          9           0        2.840477   -2.971389    0.161829
     53          9           0        4.918893   -2.721781    0.682713
     54          9           0        4.354068   -3.057130   -1.372038
 ---------------------------------------------------------------------
 Rotational constants (GHZ):           0.0817154           0.0628388           0.0512279
 General basis read from cards:  (5D, 7F)
 ======================================================================================================
                                       Pseudopotential Parameters
 ======================================================================================================
  Center     Atomic      Valence      Angular      Power
  Number     Number     Electrons     Momentum     of R      Exponent        Coefficient   SO-Coeffient
 ======================================================================================================
    1          6
                                   No pseudopotential on this center.
    2          6
                                   No pseudopotential on this center.
    3          6
                                   No pseudopotential on this center.
    4          6
                                   No pseudopotential on this center.
    5          6
                                   No pseudopotential on this center.
    6          6
                                   No pseudopotential on this center.
    7          6
                                   No pseudopotential on this center.
    8          6
                                   No pseudopotential on this center.
    9          8
                                   No pseudopotential on this center.
   10          6
                                   No pseudopotential on this center.
   11          6
                                   No pseudopotential on this center.
   12          1
                                   No pseudopotential on this center.
   13          1
                                   No pseudopotential on this center.
   14          1
                                   No pseudopotential on this center.
   15          1
                                   No pseudopotential on this center.
   16          1
                                   No pseudopotential on this center.
   17          1
                                   No pseudopotential on this center.
   18          8
                                   No pseudopotential on this center.
   19          8
                                   No pseudopotential on this center.
   20         70           42
                                      H and up 
                                                     2        1.0000000        0.00000000    0.00000000
                                      S - H
                                                     2       32.4244840      891.01377700    0.00000000
                                      P - H
                                                     2       18.6562320      264.03695300    0.00000000
                                      D - H
                                                     2       10.4902220       73.92391900    0.00000000
                                      F - H
                                                     2       20.7741830      -39.59217300    0.00000000
                                      G - H
                                                     2       28.4310280      -34.63863800    0.00000000
   21          8
                                   No pseudopotential on this center.
   22          8
                                   No pseudopotential on this center.
   23          6
                                   No pseudopotential on this center.
   24          6
                                   No pseudopotential on this center.
   25          1
                                   No pseudopotential on this center.
   26          1
                                   No pseudopotential on this center.
   27          1
                                   No pseudopotential on this center.
   28          1
                                   No pseudopotential on this center.
   29          1
                                   No pseudopotential on this center.
   30          1
                                   No pseudopotential on this center.
   31          8
                                   No pseudopotential on this center.
   32          8
                                   No pseudopotential on this center.
   33          8
                                   No pseudopotential on this center.
   34         16
                                   No pseudopotential on this center.
   35         16
                                   No pseudopotential on this center.
   36         16
                                   No pseudopotential on this center.
   37          8
                                   No pseudopotential on this center.
   38          8
                                   No pseudopotential on this center.
   39          8
                                   No pseudopotential on this center.
   40          8
                                   No pseudopotential on this center.
   41          8
                                   No pseudopotential on this center.
   42          8
                                   No pseudopotential on this center.
   43          6
                                   No pseudopotential on this center.
   44          6
                                   No pseudopotential on this center.
   45          6
                                   No pseudopotential on this center.
   46          9
                                   No pseudopotential on this center.
   47          9
                                   No pseudopotential on this center.
   48          9
                                   No pseudopotential on this center.
   49          9
                                   No pseudopotential on this center.
   50          9
                                   No pseudopotential on this center.
   51          9
                                   No pseudopotential on this center.
   52          9
                                   No pseudopotential on this center.
   53          9
                                   No pseudopotential on this center.
   54          9
                                   No pseudopotential on this center.
 ======================================================================================================
 There are   806 symmetry adapted cartesian basis functions of A   symmetry.
 There are   742 symmetry adapted basis functions of A   symmetry.
   742 basis functions,  1359 primitive gaussians,   806 cartesian basis functions
   193 alpha electrons      192 beta electrons
       nuclear repulsion energy      8781.5992410126 Hartrees.
 NAtoms=   54 NActive=   54 NUniq=   54 SFac= 1.00D+00 NAtFMM=   60 NAOKFM=F Big=F
 Integral buffers will be    131072 words long.
 Raffenetti 2 integral format.
 Two-electron integral symmetry is turned on.
 Force inversion solution in PCM.
 ------------------------------------------------------------------------------
 Polarizable Continuum Model (PCM)
 =================================
 Model                : PCM.
 Atomic radii         : SMD-Coulomb.
 Polarization charges : Total charges.
 Charge compensation  : None.
 Solution method      : Matrix inversion.
 Cavity type          : VdW (van der Waals Surface) (Alpha=1.000).
 Cavity algorithm     : GePol (No added spheres)
                        Default sphere list used, NSphG=   54.
                        Lebedev-Laikov grids with approx.  5.0 points / Ang**2.
                        Smoothing algorithm: York/Karplus (Gamma=1.0000).
                        Polarization charges: spherical gaussians, with
                                              point-specific exponents (IZeta= 3).
                        Self-potential: point-specific (ISelfS= 7).
                        Self-field    : sphere-specific E.n sum rule (ISelfD= 2).
 1st derivatives      : Analytical E(r).r(x)/FMM algorithm (CHGder, D1EAlg=3).
                        Cavity 1st derivative terms included.
 2nd derivatives      : Analytical E(r).r(xy)/FMM algorithm (CHGder, D2EAlg=3).
                        Cavity 2nd derivative terms included.
 Solvent              : DiChloroEthane, Eps=  10.125000 Eps(inf)=   2.087447
 ------------------------------------------------------------------------------
 ------------------------------------------------------------------------------
 Atomic radii for non-electrostatic terms: SMD-CDS.
 ------------------------------------------------------------------------------
 Nuclear repulsion after PCM non-electrostatic terms =     8781.6033912295 Hartrees.
 One-electron integrals computed using PRISM.
   1 Symmetry operations used in ECPInt.
 ECPInt:  NShTT=   50086 NPrTT=  191923 LenC2=   40283 LenP2D=   94546.
 LDataN:  DoStor=T MaxTD1= 9 Len=  602
 NBasis=   742 RedAO= T EigKep=  3.03D-04  NBF=   742
 NBsUse=   742 1.00D-06 EigRej= -1.00D+00 NBFU=   742
 Defaulting to unpruned grid for atomic number  70.
 ExpMin= 2.50D-02 ExpMax= 9.20D+04 ExpMxC= 1.38D+04 IAcc=3 IRadAn=         5 AccDes= 0.00D+00
 Harris functional with IExCor= 1009 and IRadAn=       5 diagonalized for initial guess.
 HarFok:  IExCor= 1009 AccDes= 0.00D+00 IRadAn=         5 IDoV= 1 UseB2=F ITyADJ=14
 ICtDFT=  3500011 ScaDFX=  1.000000  1.000000  1.000000  1.000000
 Defaulting to unpruned grid for atomic number  70.
 FoFCou: FMM=F IPFlag=           0 FMFlag=      100000 FMFlg1=           0
         NFxFlg=           0 DoJE=T BraDBF=F KetDBF=T FulRan=T
         wScrn=  0.000000 ICntrl=       500 IOpCl=  0 I1Cent=   200000004 NGrid=           0
         NMat0=    1 NMatS0=      1 NMatT0=    0 NMatD0=    1 NMtDS0=    0 NMtDT0=    0
 Petite list used in FoFCou.
 Initial guess <Sx>= 0.0000 <Sy>= 0.0000 <Sz>= 0.5000 <S**2>= 0.7500 S= 0.5000
 Requested convergence on RMS density matrix=1.00D-08 within 500 cycles.
 Requested convergence on MAX density matrix=1.00D-06.
 Requested convergence on             energy=1.00D-06.
 No special actions if energy rises.
 Defaulting to unpruned grid for atomic number  70.
 Defaulting to unpruned grid for atomic number  70.
 Defaulting to unpruned grid for atomic number  70.
 Defaulting to unpruned grid for atomic number  70.
 Defaulting to unpruned grid for atomic number  70.
 Defaulting to unpruned grid for atomic number  70.
 Defaulting to unpruned grid for atomic number  70.
 Defaulting to unpruned grid for atomic number  70.
 Defaulting to unpruned grid for atomic number  70.
 Defaulting to unpruned grid for atomic number  70.
 Defaulting to unpruned grid for atomic number  70.
 Defaulting to unpruned grid for atomic number  70.
 Defaulting to unpruned grid for atomic number  70.
 Defaulting to unpruned grid for atomic number  70.
 Defaulting to unpruned grid for atomic number  70.
 Defaulting to unpruned grid for atomic number  70.
 Defaulting to unpruned grid for atomic number  70.
 Defaulting to unpruned grid for atomic number  70.
 Defaulting to unpruned grid for atomic number  70.
 Defaulting to unpruned grid for atomic number  70.
 Defaulting to unpruned grid for atomic number  70.
 Defaulting to unpruned grid for atomic number  70.
 Defaulting to unpruned grid for atomic number  70.
 Defaulting to unpruned grid for atomic number  70.
 Inv3:  Mode=1 IEnd=    45023628.
 Iteration    1 A*A^-1 deviation from unit magnitude is 5.11D-15 for   3859.
 Iteration    1 A*A^-1 deviation from orthogonality  is 4.03D-15 for   1096   1005.
 Iteration    1 A^-1*A deviation from unit magnitude is 5.11D-15 for   3859.
 Iteration    1 A^-1*A deviation from orthogonality  is 2.41D-15 for   1846    307.
 EnCoef did     4 forward-backward iterations
 EnCoef did   100 forward-backward iterations
 EnCoef did     2 forward-backward iterations
 EnCoef did    13 forward-backward iterations
 Restarting incremental Fock formation.
 Error on total polarization charges =  0.02268
 SCF Done:  E(UMN15) =  -4881.64098805     A.U. after   39 cycles
            NFock= 39  Conv=0.39D-08     -V/T= 2.0994
 <Sx>= 0.0000 <Sy>= 0.0000 <Sz>= 0.5000 <S**2>= 0.7752 S= 0.5125
 <L.S>=  0.00000000000    
 SMD-CDS (non-electrostatic) energy       (kcal/mol) =       2.60
 (included in total energy above)
 Annihilation of the first spin contaminant:
 S**2 before annihilation     0.7752,   after     0.7503
 DoSCS=F DFT=T ScalE2(SS,OS)=  1.000000  1.000000
 Range of M.O.s used for correlation:     1   742
 NBasis=   742 NAE=   193 NBE=   192 NFC=     0 NFV=     0
 NROrb=    742 NOA=   193 NOB=   192 NVA=   549 NVB=   550

 **** Warning!!: The largest alpha MO coefficient is  0.12748616D+02


 **** Warning!!: The largest beta MO coefficient is  0.12748581D+02


 **** Warning!!: The smallest beta delta epsilon is  0.61388800D-01

   1 Symmetry operations used in ECPInt.
 ECPInt:  NShTT=   50086 NPrTT=  191923 LenC2=   40283 LenP2D=   94546.
 LDataN:  DoStor=T MaxTD1=10 Len=  848
 Symmetrizing basis deriv contribution to polar:
 IMax=3 JMax=2 DiffMx= 0.00D+00
 G2DrvN: will do    55 centers at a time, making    1 passes.
 Calling FoFCou, ICntrl=  3107 FMM=F I1Cent=   0 AccDes= 0.00D+00.
 Defaulting to unpruned grid for atomic number  70.
 Defaulting to unpruned grid for atomic number  70.
 Defaulting to unpruned grid for atomic number  70.
 Defaulting to unpruned grid for atomic number  70.
 Defaulting to unpruned grid for atomic number  70.
 Defaulting to unpruned grid for atomic number  70.
 Defaulting to unpruned grid for atomic number  70.
 Defaulting to unpruned grid for atomic number  70.
 Defaulting to unpruned grid for atomic number  70.
 Defaulting to unpruned grid for atomic number  70.
 Defaulting to unpruned grid for atomic number  70.
 Defaulting to unpruned grid for atomic number  70.
 Defaulting to unpruned grid for atomic number  70.
 Defaulting to unpruned grid for atomic number  70.
 Defaulting to unpruned grid for atomic number  70.
 Defaulting to unpruned grid for atomic number  70.
 Defaulting to unpruned grid for atomic number  70.
 Defaulting to unpruned grid for atomic number  70.
 Defaulting to unpruned grid for atomic number  70.
 Defaulting to unpruned grid for atomic number  70.
 Defaulting to unpruned grid for atomic number  70.
 Defaulting to unpruned grid for atomic number  70.
 Defaulting to unpruned grid for atomic number  70.
 Defaulting to unpruned grid for atomic number  70.
 NEqPCM:  Using equilibrium solvation (IEInf=0, Eps=  10.1250, EpsInf=   2.0874)
 G2PCM: DoFxE=T DoFxN=T DoGrad=T DoDP/DQ/DG/TGxP=FFFF NFrqRd=   0 IEInf=0 SqF1=F DoCFld=F IF1Alg=4.
 End of G2Drv F.D. properties file   721 does not exist.
 End of G2Drv F.D. properties file   722 does not exist.
 End of G2Drv F.D. properties file   788 does not exist.
          IDoAtm=11111111111111111111111111111111111111111111111111
          IDoAtm=1111
 NEqPCM:  Using equilibrium solvation (IEInf=0, Eps=  10.1250, EpsInf=   2.0874)
          Differentiating once with respect to nuclear coordinates.
 Defaulting to unpruned grid for atomic number  70.
 CalDSu exits because no D1Ps are significant.
 Defaulting to unpruned grid for atomic number  70.
 Defaulting to unpruned grid for atomic number  70.
 Defaulting to unpruned grid for atomic number  70.
 Defaulting to unpruned grid for atomic number  70.
 Defaulting to unpruned grid for atomic number  70.
 Defaulting to unpruned grid for atomic number  70.
 Defaulting to unpruned grid for atomic number  70.
 Defaulting to unpruned grid for atomic number  70.
 Defaulting to unpruned grid for atomic number  70.
 Defaulting to unpruned grid for atomic number  70.
 Defaulting to unpruned grid for atomic number  70.
 Defaulting to unpruned grid for atomic number  70.
 Defaulting to unpruned grid for atomic number  70.
 Defaulting to unpruned grid for atomic number  70.
 Defaulting to unpruned grid for atomic number  70.
 Defaulting to unpruned grid for atomic number  70.
 Defaulting to unpruned grid for atomic number  70.
 Defaulting to unpruned grid for atomic number  70.
 Defaulting to unpruned grid for atomic number  70.
 Defaulting to unpruned grid for atomic number  70.
 Defaulting to unpruned grid for atomic number  70.
 Defaulting to unpruned grid for atomic number  70.
 Defaulting to unpruned grid for atomic number  70.
 Defaulting to unpruned grid for atomic number  70.
          There are   165 degrees of freedom in the 1st order CPHF.  IDoFFX=6 NUNeed=     0.
    159 vectors produced by pass  0 Test12= 2.12D-13 1.00D-09 XBig12= 3.60D-01 2.38D-01.
 AX will form   159 AO Fock derivatives at one time.
    159 vectors produced by pass  1 Test12= 2.12D-13 1.00D-09 XBig12= 8.71D-02 5.32D-02.
    159 vectors produced by pass  2 Test12= 2.12D-13 1.00D-09 XBig12= 2.83D-03 1.16D-02.
    159 vectors produced by pass  3 Test12= 2.12D-13 1.00D-09 XBig12= 6.56D-05 1.48D-03.
    159 vectors produced by pass  4 Test12= 2.12D-13 1.00D-09 XBig12= 7.16D-07 1.19D-04.
    159 vectors produced by pass  5 Test12= 2.12D-13 1.00D-09 XBig12= 7.62D-09 1.04D-05.
    159 vectors produced by pass  6 Test12= 2.12D-13 1.00D-09 XBig12= 5.97D-11 6.53D-07.
    106 vectors produced by pass  7 Test12= 2.12D-13 1.00D-09 XBig12= 5.54D-13 1.47D-07.
     39 vectors produced by pass  8 Test12= 2.12D-13 1.00D-09 XBig12= 6.21D-15 5.19D-09.
      1 vectors produced by pass  9 Test12= 2.12D-13 1.00D-09 XBig12= 6.27D-16 1.05D-09.
 InvSVY:  IOpt=1 It=  1 EMax= 8.88D-16
 Solved reduced A of dimension  1259 with   165 vectors.
 End of Minotr F.D. properties file   721 does not exist.
 End of Minotr F.D. properties file   722 does not exist.
 End of Minotr F.D. properties file   788 does not exist.

 **********************************************************************

            Population analysis using the SCF density.

 **********************************************************************

 Orbital symmetries:
 Alpha Orbitals:
       Occupied  (A) (A) (A) (A) (A) (A) (A) (A) (A) (A) (A) (A)
                 (A) (A) (A) (A) (A) (A) (A) (A) (A) (A) (A) (A)
                 (A) (A) (A) (A) (A) (A) (A) (A) (A) (A) (A) (A)
                 (A) (A) (A) (A) (A) (A) (A) (A) (A) (A) (A) (A)
                 (A) (A) (A) (A) (A) (A) (A) (A) (A) (A) (A) (A)
                 (A) (A) (A) (A) (A) (A) (A) (A) (A) (A) (A) (A)
                 (A) (A) (A) (A) (A) (A) (A) (A) (A) (A) (A) (A)
                 (A) (A) (A) (A) (A) (A) (A) (A) (A) (A) (A) (A)
                 (A) (A) (A) (A) (A) (A) (A) (A) (A) (A) (A) (A)
                 (A) (A) (A) (A) (A) (A) (A) (A) (A) (A) (A) (A)
                 (A) (A) (A) (A) (A) (A) (A) (A) (A) (A) (A) (A)
                 (A) (A) (A) (A) (A) (A) (A) (A) (A) (A) (A) (A)
                 (A) (A) (A) (A) (A) (A) (A) (A) (A) (A) (A) (A)
                 (A) (A) (A) (A) (A) (A) (A) (A) (A) (A) (A) (A)
                 (A) (A) (A) (A) (A) (A) (A) (A) (A) (A) (A) (A)
                 (A) (A) (A) (A) (A) (A) (A) (A) (A) (A) (A) (A)
                 (A)
       Virtual   (A) (A) (A) (A) (A) (A) (A) (A) (A) (A) (A) (A)
                 (A) (A) (A) (A) (A) (A) (A) (A) (A) (A) (A) (A)
                 (A) (A) (A) (A) (A) (A) (A) (A) (A) (A) (A) (A)
                 (A) (A) (A) (A) (A) (A) (A) (A) (A) (A) (A) (A)
                 (A) (A) (A) (A) (A) (A) (A) (A) (A) (A) (A) (A)
                 (A) (A) (A) (A) (A) (A) (A) (A) (A) (A) (A) (A)
                 (A) (A) (A) (A) (A) (A) (A) (A) (A) (A) (A) (A)
                 (A) (A) (A) (A) (A) (A) (A) (A) (A) (A) (A) (A)
                 (A) (A) (A) (A) (A) (A) (A) (A) (A) (A) (A) (A)
                 (A) (A) (A) (A) (A) (A) (A) (A) (A) (A) (A) (A)
                 (A) (A) (A) (A) (A) (A) (A) (A) (A) (A) (A) (A)
                 (A) (A) (A) (A) (A) (A) (A) (A) (A) (A) (A) (A)
                 (A) (A) (A) (A) (A) (A) (A) (A) (A) (A) (A) (A)
                 (A) (A) (A) (A) (A) (A) (A) (A) (A) (A) (A) (A)
                 (A) (A) (A) (A) (A) (A) (A) (A) (A) (A) (A) (A)
                 (A) (A) (A) (A) (A) (A) (A) (A) (A) (A) (A) (A)
                 (A) (A) (A) (A) (A) (A) (A) (A) (A) (A) (A) (A)
                 (A) (A) (A) (A) (A) (A) (A) (A) (A) (A) (A) (A)
                 (A) (A) (A) (A) (A) (A) (A) (A) (A) (A) (A) (A)
                 (A) (A) (A) (A) (A) (A) (A) (A) (A) (A) (A) (A)
                 (A) (A) (A) (A) (A) (A) (A) (A) (A) (A) (A) (A)
                 (A) (A) (A) (A) (A) (A) (A) (A) (A) (A) (A) (A)
                 (A) (A) (A) (A) (A) (A) (A) (A) (A) (A) (A) (A)
                 (A) (A) (A) (A) (A) (A) (A) (A) (A) (A) (A) (A)
                 (A) (A) (A) (A) (A) (A) (A) (A) (A) (A) (A) (A)
                 (A) (A) (A) (A) (A) (A) (A) (A) (A) (A) (A) (A)
                 (A) (A) (A) (A) (A) (A) (A) (A) (A) (A) (A) (A)
                 (A) (A) (A) (A) (A) (A) (A) (A) (A) (A) (A) (A)
                 (A) (A) (A) (A) (A) (A) (A) (A) (A) (A) (A) (A)
                 (A) (A) (A) (A) (A) (A) (A) (A) (A) (A) (A) (A)
                 (A) (A) (A) (A) (A) (A) (A) (A) (A) (A) (A) (A)
                 (A) (A) (A) (A) (A) (A) (A) (A) (A) (A) (A) (A)
                 (A) (A) (A) (A) (A) (A) (A) (A) (A) (A) (A) (A)
                 (A) (A) (A) (A) (A) (A) (A) (A) (A) (A) (A) (A)
                 (A) (A) (A) (A) (A) (A) (A) (A) (A) (A) (A) (A)
                 (A) (A) (A) (A) (A) (A) (A) (A) (A) (A) (A) (A)
                 (A) (A) (A) (A) (A) (A) (A) (A) (A) (A) (A) (A)
                 (A) (A) (A) (A) (A) (A) (A) (A) (A) (A) (A) (A)
                 (A) (A) (A) (A) (A) (A) (A) (A) (A) (A) (A) (A)
                 (A) (A) (A) (A) (A) (A) (A) (A) (A) (A) (A) (A)
                 (A) (A) (A) (A) (A) (A) (A) (A) (A) (A) (A) (A)
                 (A) (A) (A) (A) (A) (A) (A) (A) (A) (A) (A) (A)
                 (A) (A) (A) (A) (A) (A) (A) (A) (A) (A) (A) (A)
                 (A) (A) (A) (A) (A) (A) (A) (A) (A) (A) (A) (A)
                 (A) (A) (A) (A) (A) (A) (A) (A) (A) (A) (A) (A)
                 (A) (A) (A) (A) (A) (A) (A) (A) (A)
 Beta  Orbitals:
       Occupied  (A) (A) (A) (A) (A) (A) (A) (A) (A) (A) (A) (A)
                 (A) (A) (A) (A) (A) (A) (A) (A) (A) (A) (A) (A)
                 (A) (A) (A) (A) (A) (A) (A) (A) (A) (A) (A) (A)
                 (A) (A) (A) (A) (A) (A) (A) (A) (A) (A) (A) (A)
                 (A) (A) (A) (A) (A) (A) (A) (A) (A) (A) (A) (A)
                 (A) (A) (A) (A) (A) (A) (A) (A) (A) (A) (A) (A)
                 (A) (A) (A) (A) (A) (A) (A) (A) (A) (A) (A) (A)
                 (A) (A) (A) (A) (A) (A) (A) (A) (A) (A) (A) (A)
                 (A) (A) (A) (A) (A) (A) (A) (A) (A) (A) (A) (A)
                 (A) (A) (A) (A) (A) (A) (A) (A) (A) (A) (A) (A)
                 (A) (A) (A) (A) (A) (A) (A) (A) (A) (A) (A) (A)
                 (A) (A) (A) (A) (A) (A) (A) (A) (A) (A) (A) (A)
                 (A) (A) (A) (A) (A) (A) (A) (A) (A) (A) (A) (A)
                 (A) (A) (A) (A) (A) (A) (A) (A) (A) (A) (A) (A)
                 (A) (A) (A) (A) (A) (A) (A) (A) (A) (A) (A) (A)
                 (A) (A) (A) (A) (A) (A) (A) (A) (A) (A) (A) (A)
       Virtual   (A) (A) (A) (A) (A) (A) (A) (A) (A) (A) (A) (A)
                 (A) (A) (A) (A) (A) (A) (A) (A) (A) (A) (A) (A)
                 (A) (A) (A) (A) (A) (A) (A) (A) (A) (A) (A) (A)
                 (A) (A) (A) (A) (A) (A) (A) (A) (A) (A) (A) (A)
                 (A) (A) (A) (A) (A) (A) (A) (A) (A) (A) (A) (A)
                 (A) (A) (A) (A) (A) (A) (A) (A) (A) (A) (A) (A)
                 (A) (A) (A) (A) (A) (A) (A) (A) (A) (A) (A) (A)
                 (A) (A) (A) (A) (A) (A) (A) (A) (A) (A) (A) (A)
                 (A) (A) (A) (A) (A) (A) (A) (A) (A) (A) (A) (A)
                 (A) (A) (A) (A) (A) (A) (A) (A) (A) (A) (A) (A)
                 (A) (A) (A) (A) (A) (A) (A) (A) (A) (A) (A) (A)
                 (A) (A) (A) (A) (A) (A) (A) (A) (A) (A) (A) (A)
                 (A) (A) (A) (A) (A) (A) (A) (A) (A) (A) (A) (A)
                 (A) (A) (A) (A) (A) (A) (A) (A) (A) (A) (A) (A)
                 (A) (A) (A) (A) (A) (A) (A) (A) (A) (A) (A) (A)
                 (A) (A) (A) (A) (A) (A) (A) (A) (A) (A) (A) (A)
                 (A) (A) (A) (A) (A) (A) (A) (A) (A) (A) (A) (A)
                 (A) (A) (A) (A) (A) (A) (A) (A) (A) (A) (A) (A)
                 (A) (A) (A) (A) (A) (A) (A) (A) (A) (A) (A) (A)
                 (A) (A) (A) (A) (A) (A) (A) (A) (A) (A) (A) (A)
                 (A) (A) (A) (A) (A) (A) (A) (A) (A) (A) (A) (A)
                 (A) (A) (A) (A) (A) (A) (A) (A) (A) (A) (A) (A)
                 (A) (A) (A) (A) (A) (A) (A) (A) (A) (A) (A) (A)
                 (A) (A) (A) (A) (A) (A) (A) (A) (A) (A) (A) (A)
                 (A) (A) (A) (A) (A) (A) (A) (A) (A) (A) (A) (A)
                 (A) (A) (A) (A) (A) (A) (A) (A) (A) (A) (A) (A)
                 (A) (A) (A) (A) (A) (A) (A) (A) (A) (A) (A) (A)
                 (A) (A) (A) (A) (A) (A) (A) (A) (A) (A) (A) (A)
                 (A) (A) (A) (A) (A) (A) (A) (A) (A) (A) (A) (A)
                 (A) (A) (A) (A) (A) (A) (A) (A) (A) (A) (A) (A)
                 (A) (A) (A) (A) (A) (A) (A) (A) (A) (A) (A) (A)
                 (A) (A) (A) (A) (A) (A) (A) (A) (A) (A) (A) (A)
                 (A) (A) (A) (A) (A) (A) (A) (A) (A) (A) (A) (A)
                 (A) (A) (A) (A) (A) (A) (A) (A) (A) (A) (A) (A)
                 (A) (A) (A) (A) (A) (A) (A) (A) (A) (A) (A) (A)
                 (A) (A) (A) (A) (A) (A) (A) (A) (A) (A) (A) (A)
                 (A) (A) (A) (A) (A) (A) (A) (A) (A) (A) (A) (A)
                 (A) (A) (A) (A) (A) (A) (A) (A) (A) (A) (A) (A)
                 (A) (A) (A) (A) (A) (A) (A) (A) (A) (A) (A) (A)
                 (A) (A) (A) (A) (A) (A) (A) (A) (A) (A) (A) (A)
                 (A) (A) (A) (A) (A) (A) (A) (A) (A) (A) (A) (A)
                 (A) (A) (A) (A) (A) (A) (A) (A) (A) (A) (A) (A)
                 (A) (A) (A) (A) (A) (A) (A) (A) (A) (A) (A) (A)
                 (A) (A) (A) (A) (A) (A) (A) (A) (A) (A) (A) (A)
                 (A) (A) (A) (A) (A) (A) (A) (A) (A) (A) (A) (A)
                 (A) (A) (A) (A) (A) (A) (A) (A) (A) (A)
 The electronic state is 2-A.
 Alpha  occ. eigenvalues --  -88.04949 -88.03424 -88.03217 -24.33958 -24.33727
 Alpha  occ. eigenvalues --  -24.33633 -24.32803 -24.32639 -24.32599 -24.32496
 Alpha  occ. eigenvalues --  -24.32424 -24.32382 -18.93275 -18.90528 -18.90307
 Alpha  occ. eigenvalues --  -18.86064 -18.85924 -18.82919 -18.82742 -18.82649
 Alpha  occ. eigenvalues --  -18.81344 -18.81332 -18.81262 -18.81032 -18.80839
 Alpha  occ. eigenvalues --  -18.80421 -16.30559 -10.94008 -10.93912 -10.93731
 Alpha  occ. eigenvalues --  -10.32772 -10.31386 -10.31123 -10.24455 -10.24249
 Alpha  occ. eigenvalues --  -10.21985 -10.21023 -10.12874 -10.11867 -10.11793
 Alpha  occ. eigenvalues --  -10.11642 -10.11352 -10.11206 -10.09578 -10.09378
 Alpha  occ. eigenvalues --   -7.94696  -7.93180  -7.92966  -6.14194  -6.14162
 Alpha  occ. eigenvalues --   -6.14112  -6.12672  -6.12652  -6.12597  -6.12468
 Alpha  occ. eigenvalues --   -6.12438  -6.12383  -5.02325  -5.02264  -5.02115
 Alpha  occ. eigenvalues --   -5.01943  -5.01919  -1.96993  -1.37416  -1.36246
 Alpha  occ. eigenvalues --   -1.36007  -1.27442  -1.27377  -1.26260  -1.26247
 Alpha  occ. eigenvalues --   -1.26007  -1.25977  -1.23124  -1.19205  -1.19035
 Alpha  occ. eigenvalues --   -1.18593  -1.17560  -1.17362  -1.10414  -1.09265
 Alpha  occ. eigenvalues --   -1.05881  -1.05171  -1.04530  -1.04230  -1.03344
 Alpha  occ. eigenvalues --   -1.02942  -1.01222  -1.00988  -1.00597  -0.95147
 Alpha  occ. eigenvalues --   -0.87054  -0.85491  -0.82969  -0.81578  -0.79487
 Alpha  occ. eigenvalues --   -0.78194  -0.77907  -0.76433  -0.75759  -0.71618
 Alpha  occ. eigenvalues --   -0.70360  -0.70082  -0.69545  -0.68345  -0.67449
 Alpha  occ. eigenvalues --   -0.67317  -0.66291  -0.66272  -0.66230  -0.66018
 Alpha  occ. eigenvalues --   -0.65995  -0.63425  -0.63114  -0.62489  -0.61244
 Alpha  occ. eigenvalues --   -0.60902  -0.59375  -0.59220  -0.58800  -0.57786
 Alpha  occ. eigenvalues --   -0.57236  -0.56913  -0.56812  -0.55819  -0.55531
 Alpha  occ. eigenvalues --   -0.55100  -0.54531  -0.54388  -0.54267  -0.54129
 Alpha  occ. eigenvalues --   -0.53829  -0.53385  -0.52944  -0.52648  -0.52533
 Alpha  occ. eigenvalues --   -0.52338  -0.51903  -0.51737  -0.51612  -0.51497
 Alpha  occ. eigenvalues --   -0.51337  -0.51142  -0.51015  -0.50542  -0.50098
 Alpha  occ. eigenvalues --   -0.50050  -0.49962  -0.49833  -0.49600  -0.48907
 Alpha  occ. eigenvalues --   -0.48767  -0.48214  -0.47871  -0.47615  -0.47080
 Alpha  occ. eigenvalues --   -0.46431  -0.44218  -0.43996  -0.43138  -0.42936
 Alpha  occ. eigenvalues --   -0.42514  -0.42294  -0.41735  -0.41535  -0.41232
 Alpha  occ. eigenvalues --   -0.40815  -0.40367  -0.39828  -0.39370  -0.39017
 Alpha  occ. eigenvalues --   -0.38417  -0.38365  -0.38095  -0.37334  -0.37003
 Alpha  occ. eigenvalues --   -0.36930  -0.36635  -0.36521  -0.36023  -0.35062
 Alpha  occ. eigenvalues --   -0.34715  -0.34525  -0.33454  -0.33291  -0.33166
 Alpha  occ. eigenvalues --   -0.32094  -0.28788  -0.28630  -0.28567  -0.28497
 Alpha  occ. eigenvalues --   -0.28449  -0.28368  -0.28229
 Alpha virt. eigenvalues --   -0.11185  -0.01968  -0.01671  -0.00027   0.06325
 Alpha virt. eigenvalues --    0.07546   0.08142   0.08583   0.08909   0.09968
 Alpha virt. eigenvalues --    0.10145   0.10475   0.10736   0.10982   0.11628
 Alpha virt. eigenvalues --    0.12085   0.12229   0.12646   0.13186   0.13396
 Alpha virt. eigenvalues --    0.13497   0.14160   0.14317   0.14437   0.15413
 Alpha virt. eigenvalues --    0.15561   0.15928   0.16458   0.16802   0.17117
 Alpha virt. eigenvalues --    0.17262   0.17433   0.17738   0.18151   0.18495
 Alpha virt. eigenvalues --    0.18894   0.19200   0.19470   0.20024   0.20245
 Alpha virt. eigenvalues --    0.20680   0.21706   0.21927   0.22246   0.24354
 Alpha virt. eigenvalues --    0.24455   0.25150   0.25784   0.26190   0.26734
 Alpha virt. eigenvalues --    0.26881   0.27210   0.27388   0.27601   0.28514
 Alpha virt. eigenvalues --    0.28809   0.28920   0.29034   0.29602   0.29995
 Alpha virt. eigenvalues --    0.30568   0.31311   0.32569   0.33262   0.34167
 Alpha virt. eigenvalues --    0.35325   0.37792   0.38094   0.38801   0.39400
 Alpha virt. eigenvalues --    0.39783   0.40879   0.41443   0.41988   0.42839
 Alpha virt. eigenvalues --    0.43559   0.44473   0.44839   0.45066   0.45628
 Alpha virt. eigenvalues --    0.45780   0.46216   0.46473   0.47020   0.47738
 Alpha virt. eigenvalues --    0.48016   0.48480   0.48772   0.49224   0.49442
 Alpha virt. eigenvalues --    0.49632   0.50148   0.50581   0.50936   0.51492
 Alpha virt. eigenvalues --    0.51621   0.51887   0.53648   0.53801   0.54189
 Alpha virt. eigenvalues --    0.54627   0.55763   0.56458   0.57433   0.57616
 Alpha virt. eigenvalues --    0.58314   0.58931   0.59187   0.59307   0.60075
 Alpha virt. eigenvalues --    0.61080   0.61900   0.62383   0.63578   0.64592
 Alpha virt. eigenvalues --    0.65179   0.65414   0.66182   0.66808   0.66988
 Alpha virt. eigenvalues --    0.67187   0.68043   0.68283   0.68730   0.68804
 Alpha virt. eigenvalues --    0.69158   0.69394   0.69832   0.69996   0.70233
 Alpha virt. eigenvalues --    0.70681   0.71087   0.71284   0.71759   0.72136
 Alpha virt. eigenvalues --    0.72537   0.72853   0.73136   0.73655   0.74125
 Alpha virt. eigenvalues --    0.74550   0.75884   0.75972   0.76449   0.76557
 Alpha virt. eigenvalues --    0.77422   0.77951   0.78366   0.78747   0.79106
 Alpha virt. eigenvalues --    0.80391   0.81198   0.81357   0.81804   0.83581
 Alpha virt. eigenvalues --    0.84674   0.85507   0.86399   0.87082   0.88167
 Alpha virt. eigenvalues --    0.89515   0.90238   0.91169   0.91691   0.92094
 Alpha virt. eigenvalues --    0.93940   0.94546   0.95335   0.97594   0.98154
 Alpha virt. eigenvalues --    0.98994   0.99778   1.00283   1.00977   1.01510
 Alpha virt. eigenvalues --    1.02765   1.03642   1.04437   1.04791   1.05766
 Alpha virt. eigenvalues --    1.06247   1.07259   1.07817   1.08020   1.08418
 Alpha virt. eigenvalues --    1.09376   1.09534   1.09898   1.10228   1.10845
 Alpha virt. eigenvalues --    1.11455   1.11867   1.12516   1.13043   1.13632
 Alpha virt. eigenvalues --    1.13925   1.14472   1.14620   1.14650   1.15694
 Alpha virt. eigenvalues --    1.15954   1.16708   1.17301   1.18017   1.18095
 Alpha virt. eigenvalues --    1.18529   1.18731   1.19186   1.19664   1.19788
 Alpha virt. eigenvalues --    1.20658   1.21083   1.21141   1.22094   1.22784
 Alpha virt. eigenvalues --    1.23106   1.23630   1.24401   1.24551   1.24901
 Alpha virt. eigenvalues --    1.25572   1.25676   1.26507   1.26857   1.27457
 Alpha virt. eigenvalues --    1.28168   1.28551   1.28955   1.29825   1.30496
 Alpha virt. eigenvalues --    1.31447   1.32143   1.33241   1.33994   1.34107
 Alpha virt. eigenvalues --    1.34504   1.35375   1.35489   1.36041   1.36410
 Alpha virt. eigenvalues --    1.38085   1.38785   1.39096   1.39869   1.40750
 Alpha virt. eigenvalues --    1.41405   1.42253   1.42453   1.42782   1.43320
 Alpha virt. eigenvalues --    1.43773   1.44684   1.44861   1.44992   1.45531
 Alpha virt. eigenvalues --    1.45897   1.46392   1.48146   1.48748   1.48760
 Alpha virt. eigenvalues --    1.50164   1.51056   1.51587   1.52839   1.53194
 Alpha virt. eigenvalues --    1.53641   1.54497   1.54879   1.55885   1.57265
 Alpha virt. eigenvalues --    1.57861   1.58455   1.58626   1.59171   1.59488
 Alpha virt. eigenvalues --    1.60454   1.61619   1.62374   1.63249   1.63487
 Alpha virt. eigenvalues --    1.63765   1.64840   1.66238   1.66868   1.67118
 Alpha virt. eigenvalues --    1.68374   1.68660   1.69506   1.70384   1.70645
 Alpha virt. eigenvalues --    1.71246   1.71900   1.73177   1.73340   1.73777
 Alpha virt. eigenvalues --    1.74021   1.75658   1.76213   1.76865   1.77597
 Alpha virt. eigenvalues --    1.77984   1.78366   1.78707   1.79239   1.80820
 Alpha virt. eigenvalues --    1.81381   1.82768   1.83351   1.85380   1.86238
 Alpha virt. eigenvalues --    1.86894   1.88225   1.88726   1.89040   1.89577
 Alpha virt. eigenvalues --    1.89697   1.90200   1.90511   1.90827   1.90945
 Alpha virt. eigenvalues --    1.91370   1.91694   1.92270   1.92442   1.94172
 Alpha virt. eigenvalues --    1.94262   1.94650   1.95447   1.96103   1.96335
 Alpha virt. eigenvalues --    1.96974   1.97736   1.98546   1.99966   2.00272
 Alpha virt. eigenvalues --    2.00478   2.00725   2.01794   2.02248   2.02794
 Alpha virt. eigenvalues --    2.03275   2.03888   2.04919   2.05477   2.06840
 Alpha virt. eigenvalues --    2.07106   2.07962   2.08431   2.09105   2.10014
 Alpha virt. eigenvalues --    2.10627   2.11395   2.12056   2.12584   2.13273
 Alpha virt. eigenvalues --    2.13381   2.13975   2.14156   2.14918   2.15631
 Alpha virt. eigenvalues --    2.16526   2.17794   2.20166   2.20881   2.21368
 Alpha virt. eigenvalues --    2.22056   2.23356   2.25582   2.27091   2.28170
 Alpha virt. eigenvalues --    2.29162   2.29837   2.30210   2.31068   2.32662
 Alpha virt. eigenvalues --    2.33426   2.37076   2.37929   2.42659   2.44380
 Alpha virt. eigenvalues --    2.47095   2.47973   2.51317   2.52727   2.54691
 Alpha virt. eigenvalues --    2.55170   2.56890   2.57191   2.59758   2.60941
 Alpha virt. eigenvalues --    2.61578   2.61693   2.62529   2.62671   2.62879
 Alpha virt. eigenvalues --    2.63365   2.64287   2.64767   2.64921   2.65210
 Alpha virt. eigenvalues --    2.65596   2.65889   2.66230   2.66407   2.66780
 Alpha virt. eigenvalues --    2.67946   2.68547   2.68872   2.69259   2.69859
 Alpha virt. eigenvalues --    2.70849   2.72119   2.72417   2.72550   2.73604
 Alpha virt. eigenvalues --    2.74161   2.74389   2.75130   2.75944   2.75998
 Alpha virt. eigenvalues --    2.76655   2.78006   2.78329   2.78536   2.79306
 Alpha virt. eigenvalues --    2.80139   2.81185   2.81359   2.82116   2.82476
 Alpha virt. eigenvalues --    2.82727   2.85511   2.86167   2.88731   2.89366
 Alpha virt. eigenvalues --    2.89795   2.90886   2.93709   2.95868   2.96679
 Alpha virt. eigenvalues --    2.97103   2.97708   2.97921   2.98016   2.98434
 Alpha virt. eigenvalues --    2.98907   2.99478   2.99685   2.99761   3.01062
 Alpha virt. eigenvalues --    3.02664   3.02989   3.03312   3.03468   3.03617
 Alpha virt. eigenvalues --    3.03956   3.04005   3.04211   3.04309   3.04374
 Alpha virt. eigenvalues --    3.04643   3.04739   3.04849   3.05076   3.05260
 Alpha virt. eigenvalues --    3.05319   3.06337   3.06518   3.06700   3.07673
 Alpha virt. eigenvalues --    3.08092   3.09241   3.10010   3.11444   3.13216
 Alpha virt. eigenvalues --    3.14860   3.15161   3.15330   3.15508   3.15892
 Alpha virt. eigenvalues --    3.16135   3.16238   3.16374   3.17747   3.23090
 Alpha virt. eigenvalues --    3.24389   3.24921   3.25425   3.26977   3.28119
 Alpha virt. eigenvalues --    3.31810   3.35077   3.38148   3.38750   3.39316
 Alpha virt. eigenvalues --    3.39531   3.39773   3.39998   3.40986   3.41391
 Alpha virt. eigenvalues --    3.41787   3.43394   3.45509   3.48846   3.51738
 Alpha virt. eigenvalues --    3.52168   3.52209   3.52402   3.52809   3.52942
 Alpha virt. eigenvalues --    3.53824   3.56109   3.60765   3.64580   3.65623
 Alpha virt. eigenvalues --    3.66175   3.66555   3.67050   3.67531   3.68004
 Alpha virt. eigenvalues --    3.82106   3.82550   3.82712   3.82870   3.83375
 Alpha virt. eigenvalues --    3.84162   6.45863   6.48597   6.52130   6.53328
 Alpha virt. eigenvalues --    6.56448   7.90109   7.92067   7.94071   7.97954
 Alpha virt. eigenvalues --    7.99957   8.02107   8.04873   9.66908  13.94720
 Alpha virt. eigenvalues --   13.99517  14.00884  24.87094  84.96090  91.99575
 Alpha virt. eigenvalues --   92.12611  92.16488 314.02656 713.77915
  Beta  occ. eigenvalues --  -88.04949 -88.03424 -88.03217 -24.33958 -24.33727
  Beta  occ. eigenvalues --  -24.33633 -24.32803 -24.32639 -24.32599 -24.32496
  Beta  occ. eigenvalues --  -24.32424 -24.32382 -18.93140 -18.90514 -18.90284
  Beta  occ. eigenvalues --  -18.85939 -18.85813 -18.82906 -18.82741 -18.82645
  Beta  occ. eigenvalues --  -18.81343 -18.81331 -18.81261 -18.81030 -18.80839
  Beta  occ. eigenvalues --  -18.80420 -16.30488 -10.93905 -10.93818 -10.93627
  Beta  occ. eigenvalues --  -10.32772 -10.31386 -10.31123 -10.24513 -10.24300
  Beta  occ. eigenvalues --  -10.21603 -10.21064 -10.12781 -10.11792 -10.11739
  Beta  occ. eigenvalues --  -10.11641 -10.11307 -10.11177 -10.09601 -10.09412
  Beta  occ. eigenvalues --   -7.94696  -7.93180  -7.92966  -6.14194  -6.14162
  Beta  occ. eigenvalues --   -6.14112  -6.12672  -6.12652  -6.12597  -6.12468
  Beta  occ. eigenvalues --   -6.12438  -6.12383  -5.02186  -5.02168  -5.02089
  Beta  occ. eigenvalues --   -5.01648  -5.01609  -1.96942  -1.37416  -1.36246
  Beta  occ. eigenvalues --   -1.36007  -1.27442  -1.27376  -1.26260  -1.26247
  Beta  occ. eigenvalues --   -1.26007  -1.25977  -1.22650  -1.19164  -1.18946
  Beta  occ. eigenvalues --   -1.18489  -1.17559  -1.17360  -1.10232  -1.09064
  Beta  occ. eigenvalues --   -1.05871  -1.05153  -1.04523  -1.04216  -1.03328
  Beta  occ. eigenvalues --   -1.02936  -1.01193  -1.00957  -1.00568  -0.94657
  Beta  occ. eigenvalues --   -0.86404  -0.84617  -0.82798  -0.81429  -0.79483
  Beta  occ. eigenvalues --   -0.78193  -0.77907  -0.75990  -0.75123  -0.71612
  Beta  occ. eigenvalues --   -0.70359  -0.70082  -0.69230  -0.67894  -0.67438
  Beta  occ. eigenvalues --   -0.67317  -0.66280  -0.66230  -0.66022  -0.65997
  Beta  occ. eigenvalues --   -0.65760  -0.63069  -0.62852  -0.62379  -0.60885
  Beta  occ. eigenvalues --   -0.60763  -0.59371  -0.59209  -0.58532  -0.57465
  Beta  occ. eigenvalues --   -0.57086  -0.56775  -0.56611  -0.55775  -0.55524
  Beta  occ. eigenvalues --   -0.54919  -0.54530  -0.54388  -0.54263  -0.54127
[...]
 6,-0.00332333,0.00766518,-0.00013311,0.00008435,-0.00024672,-0.0000251
 7,0.00001379,0.00013433,0.00000324,-0.00002461,0.00005427,0.00009755,-
 0.00047607,-0.00027138,0.00061295,-0.00046811,0.00046846,0.00001721,-0
 .00019057,0.00018303,0.00002067,-0.00002599,0.00006675,-0.00006939,-0.
 00016563,-0.00008821,0.05307429,0.03982042,-0.09431638,-0.00001017,0.0
 0002259,-0.00003044,0.00002196,0.00002400,0.00002177,0.00005191,0.0001
 1188,0.00004682,0.00000762,0.00002263,0.00003605,0.02631627,0.05120222
 ,-0.03113599,0.04313390,0.00502697,-0.00874213,-0.11381828,-0.08787834
 ,0.12687865,-0.00023385,0.00015172,0.00007477,0.00016737,-0.00019584,0
 .00011828,-0.00010781,0.00009160,0.00022065,0.00005409,-0.00005478,-0.
 00002510,-0.00017543,0.00020005,-0.00010621,0.00014293,-0.00012228,-0.
 00025635,0.00018224,-0.00014768,-0.00010169,-0.00007018,-0.00023152,-0
 .00002789,-0.00037100,0.00025393,-0.00006846,0.00235433,0.00168821,0.0
 0115042,0.00011889,-0.00031156,0.00020949,0.00001315,-0.00000398,0.000
 00728,-0.00000588,0.00000590,-0.00000290,-0.00000011,0.00000119,-0.000
 00080,-0.00000218,-0.00000201,0.00000571,0.00004865,-0.00000200,-0.000
 01430,0.00012717,0.00001627,0.00001721,-0.00002401,0.00021958,-0.00015
 871,-0.00429953,0.00047123,-0.00219602,-0.00014305,-0.00359954,0.00075
 005,-0.00068001,-0.00107157,-0.00021835,-0.00010873,0.00026102,-0.0001
 3159,0.00034715,0.00017221,-0.00008529,-0.00001341,-0.00011653,0.00003
 847,-0.00016849,-0.00000405,-0.00004779,-0.00000189,0.00009172,-0.0000
 3557,-0.00073111,-0.00016221,-0.00006043,-0.00000327,0.00001226,-0.000
 00328,0.00000371,0.00001350,-0.00000610,-0.00000097,0.00000829,-0.0000
 0598,0.00012856,0.00022728,-0.00008528,-0.00294528,0.00107633,0.001216
 83,0.00773234,-0.00133482,0.00222149,-0.02213194,0.00489896,0.00589635
 ,-0.00035451,-0.00013836,0.00016020,0.00243940,-0.00047339,0.00019957,
 0.00585529,-0.00129043,-0.00433615,-0.00170121,-0.00754702,0.00151700,
 0.00025231,-0.00002512,-0.00009464,0.00007011,0.00001612,-0.00003124,-
 0.00044581,0.00045088,-0.00019913,-0.00053325,-0.00005371,0.00005736,-
 0.00004549,-0.00035745,-0.00077319,-0.00007720,-0.00000706,-0.00001133
 ,-0.24648371,-0.10024826,0.06282566,-0.00036545,0.00016942,0.00026457,
 0.00004491,0.00022220,0.00018515,0.00000015,-0.00000485,0.00025165,0.0
 0002997,-0.00000654,0.00001098,0.00002834,-0.00001835,-0.00001496,0.00
 005327,0.00003116,-0.00000310,0.37493847,0.00033328,-0.00032710,-0.000
 19626,-0.00019457,0.00023277,-0.00011193,0.00012181,-0.00010300,-0.000
 23923,-0.00001986,0.00000978,0.00007689,0.00011734,-0.00012194,0.00006
 357,-0.00010601,0.00006601,0.00029879,-0.00069415,0.00002073,0.0002594
 5,-0.00028048,-0.00028582,-0.00043835,0.00032901,0.00034788,0.00018690
 ,0.00078300,-0.00077139,0.00053369,0.00008201,0.00059249,-0.00016489,-
 0.00001368,0.00000136,-0.00000634,0.00000205,-0.00000641,0.00000167,-0
 .00000102,-0.00000026,0.00000053,0.00000453,-0.00000431,-0.00000572,0.
 00000519,-0.00000395,0.00000717,0.00007806,0.00002399,0.00004917,-0.00
 010497,-0.00009681,-0.00017184,-0.00012440,0.00039170,-0.00044530,-0.0
 0300365,0.00066260,0.00099369,-0.00022343,0.00051064,-0.00013473,0.000
 17924,-0.00018974,0.00013313,0.00049743,-0.00021762,0.00002097,-0.0000
 0995,0.00008140,-0.00003223,-0.00010099,0.00003265,-0.00003506,-0.0000
 5024,0.00001050,-0.00005006,-0.00045923,-0.00019803,-0.00007809,0.0000
 0561,-0.00000857,0.00000151,-0.00000452,-0.00001497,-0.00000339,-0.000
 00848,-0.00001334,0.00000799,0.00014638,0.00001673,-0.00011461,-0.0001
 6197,0.00024707,0.00025924,0.00758494,-0.00252542,0.00218432,-0.036277
 41,0.00365115,0.00893489,-0.00050573,0.00025620,0.00015072,0.00040914,
 -0.00040794,0.00010997,0.00512804,-0.00365646,-0.00375813,-0.00702647,
 -0.01378427,0.00356910,0.00043851,-0.00034912,-0.00014295,0.00012503,-
 0.00012027,0.00002414,-0.00011400,0.00017567,-0.00015944,-0.00008784,0
 .00013785,-0.00002781,0.00002383,-0.00011947,-0.00000685,-0.00001309,0
 .00012869,0.00007686,-0.09794836,-0.13467444,0.03615306,-0.00005032,0.
 00003010,0.00001090,0.00001287,0.00005991,0.00001824,-0.00001434,0.000
 04532,-0.00002802,0.00001908,-0.00003934,-0.00001695,0.00004830,-0.000
 08876,-0.00007028,0.00000044,-0.00002875,-0.00001166,0.12070466,0.1149
 8769,-0.00000338,0.00000551,0.00001501,0.00000415,-0.00000254,-0.00000
 505,-0.00000463,0.00000405,0.00001028,-0.00000713,0.00000833,-0.000017
 82,0.00001650,-0.00001861,0.00001141,-0.00001353,0.00001637,-0.0000075
 0,0.00004696,0.00001217,-0.00003890,-0.00001221,-0.00000162,-0.0000168
 7,-0.00000159,-0.00003372,0.00000522,-0.00015720,0.00013614,-0.0001909
 6,0.00003578,0.00002161,-0.00003227,0.00000073,-0.00000052,-0.00000071
 ,0.00000101,-0.00000048,-0.00000026,0.00000035,-0.00000037,-0.00000016
 ,-0.00000170,0.00000153,0.00000016,-0.00001946,0.00000043,0.00000027,-
 0.00002877,-0.00000492,-0.00002594,-0.00005229,-0.00002631,0.00004934,
 -0.00064352,-0.00000892,0.00006137,0.00043374,0.00091248,-0.00062347,0
 .00007789,-0.00004012,0.00009159,-0.00001757,-0.00001158,0.00000311,-0
 .00019762,0.00002060,-0.00015035,0.00000486,0.00000416,-0.00000740,0.0
 0004698,-0.00001305,0.00003745,-0.00011131,-0.00006304,0.00008764,-0.0
 0035471,-0.00032605,-0.00049379,-0.00000094,-0.00000149,-0.00000068,0.
 00000031,-0.00000080,0.00000243,0.00000319,-0.00000098,-0.00000009,-0.
 00006360,-0.00004297,0.00004919,0.00171623,-0.00055316,-0.00063409,-0.
 00131737,0.00012168,0.00040909,0.01252484,-0.00164217,-0.00066576,0.00
 016483,-0.00003262,-0.00010505,-0.00130009,0.00016890,-0.00042546,-0.0
 0388922,0.00136108,0.00353676,0.00159904,0.00425957,-0.00059454,-0.000
 12365,0.00006222,0.00004268,-0.00003373,0.00001601,0.00002222,0.000235
 36,-0.00023579,0.00026096,0.00027958,0.00007285,0.00007556,0.00000855,
 0.00016492,0.00029858,0.00001015,-0.00000814,-0.00004531,0.06302193,0.
 03694953,-0.09263521,0.00019551,-0.00008294,-0.00011691,-0.00000657,-0
 .00008260,-0.00006259,0.00001200,-0.00001323,-0.00007594,0.00000089,-0
 .00000344,0.00002419,-0.00001152,0.00001711,0.00002125,-0.00001334,-0.
 00000570,0.00001113,-0.09653017,-0.03682266,0.11464591,-0.00039684,0.0
 0034125,0.00019546,0.00025316,-0.00029844,0.00015487,-0.00016136,0.000
 13772,0.00032401,0.00004838,-0.00004121,-0.00008049,-0.00019398,0.0002
 1389,-0.00011225,0.00016673,-0.00012344,-0.00038663,0.00062811,-0.0001
 1044,-0.00026317,0.00021305,0.00012664,0.00030194,-0.00041668,-0.00011
 978,-0.00013900,0.00075380,0.00086219,0.00024785,0.00008769,-0.0005757
 6,0.00025289,0.00001887,-0.00000404,0.00000869,-0.00000498,0.00000769,
 -0.00000373,0.00000034,0.00000079,-0.00000110,-0.00000560,0.00000128,0
 .00000796,0.00002049,0.00000020,-0.00001487,0.00001514,-0.00001263,-0.
 00003345,-0.00002480,0.00017729,0.00006932,-0.00123091,0.00006517,-0.0
 0029071,0.00198664,-0.00169212,-0.00114643,-0.00029603,-0.00065381,-0.
 00008049,-0.00023209,0.00031013,-0.00019357,0.00006483,0.00011736,-0.0
 0007154,0.00000312,-0.00014558,0.00004650,-0.00006811,-0.00001293,-0.0
 0001950,0.00010382,0.00003403,-0.00008268,-0.00001646,0.00010240,0.000
 17689,-0.00000813,0.00001315,-0.00000404,0.00000755,0.00001881,0.00000
 100,0.00000999,0.00001447,-0.00001030,-0.00005874,0.00012869,0.0000762
 6,-0.00067294,0.00028051,0.00034964,-0.00376497,0.00675071,-0.00292359
 ,-0.01110451,-0.00806140,-0.01437626,0.00028898,-0.00035336,-0.0000995
 8,0.00067914,-0.00011791,-0.00019122,0.00016330,0.00210270,0.00405053,
 0.00646441,0.00361850,0.00061049,-0.00027532,0.00044704,0.00016217,-0.
 00007320,0.00013290,-0.00002483,-0.00011954,0.00010251,0.00007656,-0.0
 0016366,-0.00002427,0.00010203,-0.00001635,-0.00010955,-0.00034084,-0.
 00011356,-0.00010822,-0.00013065,-0.18634128,0.05552809,-0.11903783,-0
 .00010739,0.00005293,0.00010363,0.00002088,0.00008629,0.00008649,0.000
 00855,-0.00002359,0.00013972,0.00003239,0.00001335,0.00005977,-0.00001
 250,0.00007690,0.00007224,0.00005525,0.00005153,0.00001871,-0.07833343
 ,-0.00268446,-0.03122540,0.26048085,0.00044932,-0.00041408,-0.00024231
 ,-0.00027433,0.00032552,-0.00016327,0.00017320,-0.00014697,-0.00034439
 ,-0.00004131,0.00003051,0.00009668,0.00018983,-0.00020446,0.00010686,-
 0.00016687,0.00011522,0.00042067,-0.00082275,0.00007612,0.00032006,-0.
 00032594,-0.00028451,-0.00046466,0.00044690,0.00031010,0.00019991,0.00
 007125,-0.00080019,0.00018646,-0.00004037,0.00070106,-0.00029024,-0.00
 002027,0.00000309,-0.00000951,0.00000427,-0.00000872,0.00000319,-0.000
 00092,-0.00000064,0.00000085,0.00000603,-0.00000345,-0.00000836,-0.000
 00872,-0.00000295,0.00001303,0.00004359,0.00002428,0.00005198,-0.00000
 611,-0.00014936,-0.00016305,0.00023448,0.00012858,-0.00023995,-0.00321
 396,0.00106360,0.00188212,0.00002909,0.00065277,-0.00002806,0.00027064
 ,-0.00030965,0.00021707,0.00013427,-0.00020451,0.00006545,-0.00000873,
 0.00014453,-0.00005271,-0.00000291,0.00002136,-0.00000740,-0.00000114,
 0.00001010,-0.00001389,0.00000731,0.00002818,0.00002213,0.00000907,-0.
 00001341,0.00000358,-0.00000790,-0.00002166,-0.00000315,-0.00001341,-0
 .00001848,0.00001129,0.00014683,-0.00006606,-0.00013253,0.00013213,0.0
 0006607,-0.00010965,0.00853782,-0.01103585,0.00623576,0.02025292,0.011
 03882,0.02182701,-0.00058522,0.00042172,0.00017381,-0.00005144,-0.0001
 4116,0.00022179,0.00074409,-0.00320250,-0.00514448,-0.00429866,-0.0029
 1332,-0.00118518,0.00051496,-0.00062752,-0.00025503,0.00014441,-0.0001
 8058,0.00004244,-0.00001033,0.00005357,-0.00014114,0.00002585,0.000078
 13,-0.00008241,-0.00000322,-0.00001745,0.00015141,0.00009020,0.0001653
 1,0.00013515,0.05425557,-0.10412416,0.05664934,0.00001999,-0.00000603,
 -0.00003988,0.00000144,-0.00000510,-0.00003135,-0.00000879,0.00003683,
 -0.00008458,-0.00001263,-0.00003700,-0.00005019,0.00003975,-0.00011879
 ,-0.00010126,-0.00004397,-0.00005689,-0.00001765,-0.01510876,0.0158339
 5,-0.01053066,-0.04962388,0.07777858,-0.00035590,0.00031370,0.00018531
 ,0.00022652,-0.00026639,0.00013270,-0.00014549,0.00012452,0.00029117,0
 .00003723,-0.00002957,-0.00008285,-0.00015888,0.00017431,-0.00009187,0
 .00013846,-0.00009909,-0.00034355,0.00059891,-0.00008438,-0.00025580,0
 .00021247,0.00015608,0.00030079,-0.00034842,-0.00016161,-0.00011784,0.
 00035260,0.00063239,0.00000838,0.00008433,-0.00050729,0.00019704,0.000
 01666,-0.00000348,0.00000675,-0.00000359,0.00000639,-0.00000351,0.0000
 0025,0.00000051,-0.00000131,-0.00000606,0.00000209,0.00000708,0.000008
 83,0.00000065,-0.00001314,-0.00001176,-0.00001514,-0.00004129,-0.00003
 386,0.00013311,0.00010916,-0.00062101,-0.00001124,0.00005121,0.0020129
 1,-0.00097330,-0.00126930,-0.00015300,-0.00051265,0.00000213,-0.000213
 25,0.00025763,-0.00016242,-0.00000012,0.00012694,-0.00007928,0.0000074
 4,-0.00012259,0.00003530,-0.00003001,-0.00001384,-0.00000297,0.0000363
 5,0.00001563,-0.00002823,0.00000197,0.00001775,0.00004612,-0.00000778,
 0.00001016,-0.00000400,0.00000546,0.00001539,0.00000191,0.00001109,0.0
 0001179,-0.00000961,-0.00009174,0.00008142,0.00010832,-0.00022339,0.00
 006779,0.00024523,-0.00449069,0.00716948,-0.00298536,-0.01578679,-0.00
 818379,-0.01184641,0.00037689,-0.00033308,-0.00017369,0.00013754,0.000
 03295,-0.00028363,-0.00105176,0.00462474,0.00637056,0.00444991,0.00171
 168,0.00105882,-0.00034301,0.00046589,0.00019318,-0.00009160,0.0001318
 4,-0.00000362,-0.00001526,-0.00002570,0.00016277,-0.00003220,-0.000024
 09,0.00011203,-0.00006429,-0.00002201,-0.00022663,-0.00010891,-0.00009
 163,-0.00016417,-0.11768456,0.05697038,-0.19223280,-0.00001307,0.00001
 569,0.00005800,0.00002523,0.00004564,0.00005949,0.00002466,-0.00003817
 ,0.00011381,0.00003650,0.00000254,0.00008160,-0.00001659,0.00007976,0.
 00008302,0.00004305,0.00004084,0.00002772,-0.01757369,-0.00584369,0.01
 262797,0.18205894,-0.04951366,0.26516840,-0.00020455,0.00017663,0.0000
 9745,0.00012725,-0.00015104,0.00008126,-0.00007977,0.00006781,0.000159
 98,0.00002637,-0.00002308,-0.00003407,-0.00010393,0.00011410,-0.000059
 82,0.00008933,-0.00006636,-0.00019571,0.00032261,-0.00005612,-0.000124
 66,0.00011855,0.00007301,0.00016651,-0.00021728,-0.00005906,-0.0000816
 0,0.00038521,0.00041049,0.00013429,-0.00001332,-0.00033813,0.00013003,
 0.00000923,-0.00000209,0.00000482,-0.00000289,0.00000425,-0.00000162,0
 .00000026,0.00000049,-0.00000027,-0.00000203,0.00000036,0.00000394,0.0
 0001510,0.00000035,-0.00000703,0.00001298,-0.00000646,-0.00001113,0.00
 005987,0.00010603,0.00000899,-0.00051989,0.00005210,-0.00019428,0.0011
 1200,-0.00097735,0.00009932,-0.00014916,-0.00030672,-0.00005691,-0.000
 09738,0.00015913,-0.00009088,0.00005100,0.00003526,-0.00004953,-0.0000
 0077,-0.00007079,0.00002674,-0.00003715,-0.00000697,-0.00001194,0.0000
 6872,0.00002194,-0.00004016,0.00008101,0.00009541,0.00012018,-0.000003
 36,0.00000731,-0.00000143,0.00000300,0.00000983,-0.00000119,0.00000283
 ,0.00000829,-0.00000469,-0.00000778,0.00007792,0.00000886,-0.00061183,
 0.00023856,0.00020091,0.00010868,-0.00040019,-0.00063127,0.00147655,-0
 .00076191,0.00893335,0.00007870,-0.00016166,0.00001559,0.00059808,-0.0
 0011242,0.00000996,-0.00123194,0.00358476,0.00127708,0.00330030,0.0025
 4280,-0.00212056,-0.00008848,0.00012851,-0.00002056,-0.00002738,0.0000
 6322,-0.00002979,-0.00010316,0.00010566,-0.00003047,-0.00014841,-0.000
 02735,0.00002576,0.00002239,-0.00007935,-0.00020982,-0.00001394,-0.000
 08347,-0.00000966,-0.08894275,0.03757062,0.05485902,-0.00010090,0.0000
 4195,0.00007038,0.00000150,0.00004943,0.00004958,-0.00000447,-0.000006
 27,0.00007454,-0.00000542,0.00002851,-0.00000536,-0.00001103,0.0000329
 0,0.00001942,0.00002389,0.00002916,-0.00000237,-0.03457460,0.01310385,
 0.05570087,0.01163790,-0.01227270,-0.03122757,0.10757026,0.00052093,-0
 .00049137,-0.00027946,-0.00030652,0.00036735,-0.00018937,0.00018991,-0
 .00016077,-0.00037509,-0.00004617,0.00003401,0.00009667,0.00021869,-0.
 00023355,0.00012170,-0.00019300,0.00013211,0.00047356,-0.00098932,0.00
 007411,0.00035491,-0.00040245,-0.00037578,-0.00059805,0.00053815,0.000
 39851,0.00028135,0.00033106,-0.00096243,0.00026284,0.00017330,0.000949
 98,-0.00032398,-0.00002118,0.00000318,-0.00001156,0.00000548,-0.000010
 64,0.00000264,-0.00000117,-0.00000075,0.00000042,0.00000552,-0.0000037
 2,-0.00000915,-0.00001549,-0.00000414,0.00001291,0.00005738,0.00003105
 ,0.00005076,-0.00026103,-0.00022958,-0.00013850,0.00001356,0.00011223,
 -0.00013785,-0.00411140,0.00111014,0.00016672,-0.00002792,0.00072211,-
 0.00001632,0.00024210,-0.00033884,0.00021365,0.00022456,-0.00022805,0.
 00000828,-0.00000428,0.00014314,-0.00006320,-0.00000783,0.00002326,-0.
 00000107,-0.00003079,0.00001151,0.00000086,0.00005616,0.00002976,-0.00
 001716,0.00000748,-0.00001631,0.00000223,-0.00000743,-0.00002480,-0.00
 000052,-0.00000962,-0.00002280,0.00001238,0.00012630,-0.00008310,-0.00
 009137,0.00051640,0.00000609,-0.00009423,0.00355748,-0.00195669,0.0064
 0195,0.00851833,0.00422492,-0.03617251,-0.00053395,0.00043178,0.000067
 90,-0.00042972,-0.00009323,0.00004718,0.00730761,-0.01546186,-0.006747
 22,-0.00467798,-0.00303310,0.00488144,0.00050194,-0.00046558,-0.000005
 01,0.00015296,-0.00019605,0.00008122,0.00003680,-0.00000992,-0.0000414
 5,0.00013117,0.00013024,-0.00002963,-0.00006310,-0.00000178,0.00019494
 ,-0.00000358,0.00025465,0.00002677,0.03734231,-0.15491009,-0.11126307,
 0.00008947,-0.00002426,-0.00006303,0.00002304,0.00000097,-0.00003376,0
 .00000675,0.00003192,-0.00008723,0.00003916,-0.00009357,0.00002443,0.0
 0005608,-0.00011920,-0.00007404,-0.00003871,-0.00007032,0.00000575,0.0
 0118395,0.01960263,0.00627396,-0.00702030,0.01600742,-0.00656330,-0.04
 297113,0.13478922,0.00031619,-0.00029375,-0.00015848,-0.00018323,0.000
 22180,-0.00012194,0.00011152,-0.00009394,-0.00022027,-0.00003350,0.000
 02761,0.00004342,0.00014789,-0.00015891,0.00008241,-0.00012842,0.00009
 181,0.00028767,-0.00057350,0.00005693,0.00018873,-0.00023177,-0.000206
 94,-0.00036662,0.00035961,0.00020037,0.00019375,-0.00008008,-0.0007338
 1,-0.00005122,0.00013740,0.00061394,-0.00023220,-0.00001249,0.00000196
 ,-0.00000853,0.00000459,-0.00000717,0.00000099,-0.00000069,-0.00000055
 ,-0.00000022,0.00000223,-0.00000106,-0.00000551,-0.00002022,-0.0000019
 7,0.00000763,0.00001096,0.00001625,0.00001749,-0.00018288,-0.00016619,
 -0.00002526,0.00040509,0.00003729,0.00026777,-0.00188939,0.00111359,-0
 .00016733,0.00008699,0.00051555,0.00008538,0.00013915,-0.00022873,0.00
 014815,0.00012050,-0.00011181,-0.00003494,0.00000529,0.00009443,-0.000
 05044,0.00001636,0.00001391,0.00001811,-0.00010158,-0.00001250,0.00005
 113,0.00001096,-0.00005122,-0.00015240,0.00000318,-0.00001222,0.000001
 13,-0.00000297,-0.00001801,0.00000303,-0.00000323,-0.00001558,0.000007
 73,0.00003902,-0.00008753,-0.00000865,0.00085646,-0.00027150,-0.000175
 54,0.00305986,-0.00143305,0.00599697,0.00487198,0.00341748,-0.01726104
 ,-0.00020880,0.00024525,-0.00006237,-0.00086115,0.00011575,-0.00012987
 ,0.00264196,-0.00691038,-0.00158734,-0.00424450,-0.00215628,0.00370553
 ,0.00021975,-0.00023756,0.00003454,0.00007325,-0.00011328,0.00008134,0
 .00013097,-0.00013405,0.00009914,0.00021742,0.00007900,0.00001718,-0.0
 0007631,0.00008967,0.00022421,-0.00000804,0.00015653,-0.00003852,0.054
 32398,-0.11214579,-0.23762806,0.00015221,-0.00005394,-0.00008320,0.000
 01698,-0.00003962,-0.00004473,0.00001992,0.00000071,-0.00007026,0.0000
 3190,-0.00006691,0.00004650,0.00002810,-0.00006035,-0.00002503,-0.0000
 3068,-0.00004741,0.00001743,0.04580660,-0.00501009,-0.03542768,-0.0184
 7042,-0.01958748,-0.07742269,-0.08702444,0.14335970,0.35993300\\0.0000
 0296,0.00000528,-0.00000961,0.00000310,0.00000227,-0.00000874,0.000002
 76,0.00000377,-0.00001123,-0.00000008,0.00000238,-0.00000990,-0.000002
 83,0.00000194,-0.00001014,-0.00000295,0.00000228,-0.00000754,0.0000020
 2,0.00000191,-0.00000527,0.00000070,0.00000230,-0.00000218,0.00000357,
 0.00000022,-0.00000934,0.00000265,0.00000056,-0.00000330,0.00000507,-0
 .00000017,0.00000019,0.00000717,0.00000489,-0.00000827,0.00000487,0.00
 000421,-0.00001141,-0.00000066,0.00000238,-0.00001205,-0.00000501,0.00
 000114,-0.00001040,-0.00000384,0.00000147,-0.00000727,-0.00000288,0.00
 000074,-0.00000612,0.00000255,0.00000274,0.00000062,-0.00000018,0.0000
 0017,0.00000315,0.00000157,-0.00000874,0.00000365,0.00000002,0.0000008
 7,-0.00000105,0.00000515,0.00000220,-0.00000159,-0.00000097,-0.0000003
 0,-0.00000176,0.00000771,0.00000237,-0.00000126,-0.00000129,0.00000029
 ,-0.00000343,-0.00000551,-0.00000152,-0.00000063,0.00000063,0.00000041
 ,0.00000130,0.00000879,0.00000344,-0.00000278,0.00000953,0.00000273,0.
 00000067,0.00000599,0.00000169,0.00000041,0.00000098,0.00000432,0.0000
 0393,-0.00000425,-0.00000121,0.00000269,0.00000280,-0.00000151,0.00000
 863,0.00000072,-0.00000210,0.00001376,0.00000050,0.00000034,0.00000645
 ,-0.00000640,-0.00000246,-0.00000377,-0.00000583,-0.00000551,0.0000055
 2,0.00000101,-0.00000330,0.00001394,0.00000440,-0.00000047,0.00001076,
 0.00000656,-0.00000008,0.00000523,-0.00000200,0.00000006,0.00000208,-0
 .00000374,-0.00000151,-0.00000277,-0.00000897,-0.00000232,-0.00000205,
 0.00000009,-0.00000194,0.00000897,-0.00000198,-0.00000331,0.00000939,-
 0.00000913,-0.00000177,-0.00000417,-0.00000902,-0.00000263,0.00000102,
 -0.00001125,-0.00000299,-0.00000162,-0.00000244,-0.00000307,0.00000992
 ,-0.00000060,-0.00000188,0.00000717,0.00000167,-0.00000250,0.00001159,
 -0.00000087,-0.00000195,0.00000692,-0.00000312,-0.00000388,0.00001140,
 0.00000025,-0.00000224,0.00001029\\\@


 GOD GAVE US TWO ENDS... ONE TO SIT ON...    
 AND THE OTHER TO THINK WITH...              
 YOUR SUCCESS DEPENDS UPON WHICH END YOU     
 USE THE MOST...                             
                                             
 IT'S A CASE OF HEADS YOU WIN TAILS YOU LOSE.
          SOURCE UNKNOWN(IT'S JUST AS WELL.) 
 Job cpu time:       2 days  8 hours 53 minutes 30.1 seconds.
 Elapsed time:       0 days  2 hours 25 minutes 46.6 seconds.
 File lengths (MBytes):  RWF=   8044 Int=      0 D2E=      0 Chk=     84 Scr=      8
 Normal termination of Gaussian 16 at Mon Mar  3 11:48:55 2025.
