 Entering Gaussian System, Link 0=/sysapps/ubuntu-applications/gaussian-new/avx/g16//g16
 Input=i2.in
 Output=i2.log
 Initial command:
 /sysapps/ubuntu-applications/gaussian-new/avx/g16/l1.exe "/scratch/selhajj1/7597843/Gau-1997549.inp" -scrdir="/scratch/selhajj1/7597843/"
 Entering Link 1 = /sysapps/ubuntu-applications/gaussian-new/avx/g16/l1.exe PID=   1997551.
  
 Copyright (c) 1988,1990,1992,1993,1995,1998,2003,2009,2016,
            Gaussian, Inc.  All Rights Reserved.
  
 This is part of the Gaussian(R) 16 program.  It is based on
 the Gaussian(R) 09 system (copyright 2009, Gaussian, Inc.),
 the Gaussian(R) 03 system (copyright 2003, Gaussian, Inc.),
 the Gaussian(R) 98 system (copyright 1998, Gaussian, Inc.),
 the Gaussian(R) 94 system (copyright 1995, Gaussian, Inc.),
 the Gaussian 92(TM) system (copyright 1992, Gaussian, Inc.),
 the Gaussian 90(TM) system (copyright 1990, Gaussian, Inc.),
 the Gaussian 88(TM) system (copyright 1988, Gaussian, Inc.),
 the Gaussian 86(TM) system (copyright 1986, Carnegie Mellon
 University), and the Gaussian 82(TM) system (copyright 1983,
 Carnegie Mellon University). Gaussian is a federally registered
 trademark of Gaussian, Inc.
  
 This software contains proprietary and confidential information,
 including trade secrets, belonging to Gaussian, Inc.
  
 This software is provided under written license and may be
 used, copied, transmitted, or stored only in accord with that
 written license.
  
 The following legend is applicable only to US Government
 contracts under FAR:
  
                    RESTRICTED RIGHTS LEGEND
  
 Use, reproduction and disclosure by the US Government is
 subject to restrictions as set forth in subparagraphs (a)
 and (c) of the Commercial Computer Software - Restricted
 Rights clause in FAR 52.227-19.
  
 Gaussian, Inc.
 340 Quinnipiac St., Bldg. 40, Wallingford CT 06492
  
  
 ---------------------------------------------------------------
 Warning -- This program may not be used in any manner that
 competes with the business of Gaussian, Inc. or will provide
 assistance to any competitor of Gaussian, Inc.  The licensee
 of this program is prohibited from giving any competitor of
 Gaussian, Inc. access to this program.  By using this program,
 the user acknowledges that Gaussian, Inc. is engaged in the
 business of creating and licensing software in the field of
 computational chemistry and represents and warrants to the
 licensee that it is not a competitor of Gaussian, Inc. and that
 it will not use this program in any manner prohibited above.
 ---------------------------------------------------------------
  

 Cite this work as:
 Gaussian 16, Revision A.03,
 M. J. Frisch, G. W. Trucks, H. B. Schlegel, G. E. Scuseria, 
 M. A. Robb, J. R. Cheeseman, G. Scalmani, V. Barone, 
 G. A. Petersson, H. Nakatsuji, X. Li, M. Caricato, A. V. Marenich, 
 J. Bloino, B. G. Janesko, R. Gomperts, B. Mennucci, H. P. Hratchian, 
 J. V. Ortiz, A. F. Izmaylov, J. L. Sonnenberg, D. Williams-Young, 
 F. Ding, F. Lipparini, F. Egidi, J. Goings, B. Peng, A. Petrone, 
 T. Henderson, D. Ranasinghe, V. G. Zakrzewski, J. Gao, N. Rega, 
 G. Zheng, W. Liang, M. Hada, M. Ehara, K. Toyota, R. Fukuda, 
 J. Hasegawa, M. Ishida, T. Nakajima, Y. Honda, O. Kitao, H. Nakai, 
 T. Vreven, K. Throssell, J. A. Montgomery, Jr., J. E. Peralta, 
 F. Ogliaro, M. J. Bearpark, J. J. Heyd, E. N. Brothers, K. N. Kudin, 
 V. N. Staroverov, T. A. Keith, R. Kobayashi, J. Normand, 
 K. Raghavachari, A. P. Rendell, J. C. Burant, S. S. Iyengar, 
 J. Tomasi, M. Cossi, J. M. Millam, M. Klene, C. Adamo, R. Cammi, 
 J. W. Ochterski, R. L. Martin, K. Morokuma, O. Farkas, 
 J. B. Foresman, and D. J. Fox, Gaussian, Inc., Wallingford CT, 2016.
 
 ******************************************
 Gaussian 16:  ES64L-G16RevA.03 25-Dec-2016
                19-Feb-2025 
 ******************************************
 %chk=i2.chk
 %mem=616Gb
 %nprocshared=24
 Will use up to   24 processors via shared memory.
 -------------------------------------------------------------------
 #P MN15/gen scf=(maxcyc=500) freq scrf=(smd,solvent=DiChloroEthane)
 -------------------------------------------------------------------
 1/10=4,30=1,38=1/1,3;
 2/12=2,17=6,18=5,40=1/2;
 3/5=7,11=2,25=1,30=1,70=32201,71=2,72=10,74=-73,140=1/1,2,3;
 4//1;
 5/5=2,7=500,38=5,53=10,98=1/2;
 8/6=4,10=90,11=11/1;
 11/6=1,8=1,9=11,15=111,16=1/1,2,10;
 10/6=1/2;
 6/7=2,8=2,9=2,10=2,28=1/1;
 7/8=1,10=1,25=1/1,2,3,16;
 1/10=4,30=1/3;
 99//99;
 Leave Link    1 at Wed Feb 19 02:48:16 2025, MaxMem= 82678120448 cpu:               3.8 elap:               0.6
 (Enter /sysapps/ubuntu-applications/gaussian-new/avx/g16/l101.exe)
 ---
 Opt
 ---
 Symbolic Z-matrix:
 Charge =  0 Multiplicity = 1
 C                    -1.72174   0.13351   1.18841 
 C                    -1.3894    0.25427  -0.18225 
 C                    -0.67314  -0.21128   2.07814 
 O                     0.5302   -0.44259   1.7537 
 O                    -0.23438   0.25935  -0.69259 
 O                    -2.42484   0.32143  -1.00889 
 O                    -1.00097  -0.37202   3.35462 
 C                    -2.16102   0.43173  -2.40486 
 C                     0.04026  -0.7043    4.2712 
 H                    -3.13199   0.3627   -2.9086 
 H                    -1.4947   -0.3759   -2.74116 
 H                    -1.69024   1.39726  -2.63293 
 H                    -0.42547  -0.74392   5.26164 
 H                     0.82782   0.06159   4.25388 
 H                     0.48163  -1.67928   4.02318 
 O                     3.43301  -0.97531   0.84006 
 O                     2.38632  -0.31693  -1.82385 
 O                     0.65299   2.21952   1.08664 
 S                     1.26109   3.08456   0.04534 
 S                     4.10779   0.088     1.64774 
 S                     2.02924  -1.77012  -1.81813 
 O                     2.05689   2.16275  -0.82875 
 O                     1.88975   4.3172    0.44922 
 O                     3.13759   1.22053   1.64754 
 O                     4.722    -0.29338   2.89213 
 O                     1.38517  -2.0258   -0.5065 
 O                     1.3647   -2.28941  -2.99393 
 C                     3.67909  -2.64623  -1.74328 
 C                     5.45342   0.66292   0.53343 
 C                    -0.17035   3.58981  -1.04686 
 F                     3.68968  -3.47672  -0.71932 
 F                     4.65847  -1.77242  -1.6192 
 F                     3.84648  -3.3298   -2.86153 
 F                     4.92039   1.01665  -0.62269 
 F                     6.31688  -0.31706   0.34505 
 F                     6.06603   1.69809   1.07589 
 F                    -1.29625   3.06602  -0.58658 
 F                     0.03116   3.16355  -2.28057 
 F                    -0.27596   4.9041   -1.04873 
 C                    -4.44854  -0.03628   1.16909 
 C                    -4.55501  -1.60126   1.10664 
 C                    -5.85174  -2.0505    0.55841 
 C                    -4.50245  -2.08702   2.50385 
 C                    -1.23911  -3.06331   0.15616 
 C                    -2.7204   -2.87068  -1.71488 
 C                    -1.43927  -3.18127  -1.20304 
 H                    -0.28946  -3.29797   0.63485 
 H                    -2.96005  -2.98454  -2.77407 
 H                    -0.64155  -3.50493  -1.87395 
 N                    -6.89311  -2.40097   0.19879 
 N                    -4.48067  -2.42702   3.60902 
 N                    -3.45414  -2.26399   0.33159 
 N                    -3.69434  -2.42036  -0.95489 
 C                    -2.29626  -2.57089   0.92738 
 H                    -2.23542  -2.45606   2.01102 
 C                    -3.09254   0.47597   1.74444 
 H                    -3.20838   1.57201   1.75124 
 H                    -3.07706   0.18548   2.80382 
 Sc                    1.64915   0.25339   0.18909 
 H                    -5.14218   0.17334   2.00139 
 C                    -5.05037   0.77055   0.02104 
 C                    -5.34494   2.11061   0.32255 
 C                    -5.37314   0.29658  -1.25525 
 C                    -5.92115   2.95645  -0.62388 
 H                    -5.1268    2.49758   1.32232 
 C                    -5.9627    1.13954  -2.20274 
 H                    -5.15356  -0.73208  -1.5403 
 C                    -6.23414   2.47269  -1.8965 
 H                    -6.13582   3.99457  -0.36054 
 H                    -6.20392   0.74315  -3.19186 
 H                    -6.69067   3.12901  -2.64063 
 
 ITRead=  0  0  0  0  0  0  0  0  0  0  0  0  0  0  0  0  0  0  0  0
 ITRead=  0  0  0  0  0  0  0  0  0  0  0  0  0  0  0  0  0  0  0  0
 ITRead=  0  0  0  0  0  0  0  0  0  0  0  0  0  0  0  0  0  0  0  0
 ITRead=  0  0  0  0  0  0  0  0  0  0  0
 MicOpt= -1 -1 -1 -1 -1 -1 -1 -1 -1 -1 -1 -1 -1 -1 -1 -1 -1 -1 -1 -1
 MicOpt= -1 -1 -1 -1 -1 -1 -1 -1 -1 -1 -1 -1 -1 -1 -1 -1 -1 -1 -1 -1
 MicOpt= -1 -1 -1 -1 -1 -1 -1 -1 -1 -1 -1 -1 -1 -1 -1 -1 -1 -1 -1 -1
 MicOpt= -1 -1 -1 -1 -1 -1 -1 -1 -1 -1 -1
 NAtoms=     71 NQM=       71 NQMF=       0 NMMI=      0 NMMIF=      0
                NMic=       0 NMicF=      0.
                    Isotopes and Nuclear Properties:
 (Nuclear quadrupole moments (NQMom) in fm**2, nuclear magnetic moments (NMagM)
  in nuclear magnetons)

  Atom         1           2           3           4           5           6           7           8           9          10
 IAtWgt=          12          12          12          16          16          16          16          12          12           1
 AtmWgt=  12.0000000  12.0000000  12.0000000  15.9949146  15.9949146  15.9949146  15.9949146  12.0000000  12.0000000   1.0078250
 NucSpn=           0           0           0           0           0           0           0           0           0           1
 AtZEff=  -0.0000000  -0.0000000  -0.0000000  -0.0000000  -0.0000000  -0.0000000  -0.0000000  -0.0000000  -0.0000000  -0.0000000
 NQMom=    0.0000000   0.0000000   0.0000000   0.0000000   0.0000000   0.0000000   0.0000000   0.0000000   0.0000000   0.0000000
 NMagM=    0.0000000   0.0000000   0.0000000   0.0000000   0.0000000   0.0000000   0.0000000   0.0000000   0.0000000   2.7928460
 AtZNuc=   6.0000000   6.0000000   6.0000000   8.0000000   8.0000000   8.0000000   8.0000000   6.0000000   6.0000000   1.0000000

  Atom        11          12          13          14          15          16          17          18          19          20
 IAtWgt=           1           1           1           1           1          16          16          16          32          32
 AtmWgt=   1.0078250   1.0078250   1.0078250   1.0078250   1.0078250  15.9949146  15.9949146  15.9949146  31.9720718  31.9720718
 NucSpn=           1           1           1           1           1           0           0           0           0           0
 AtZEff=  -0.0000000  -0.0000000  -0.0000000  -0.0000000  -0.0000000  -0.0000000  -0.0000000  -0.0000000  -0.0000000  -0.0000000
 NQMom=    0.0000000   0.0000000   0.0000000   0.0000000   0.0000000   0.0000000   0.0000000   0.0000000   0.0000000   0.0000000
 NMagM=    2.7928460   2.7928460   2.7928460   2.7928460   2.7928460   0.0000000   0.0000000   0.0000000   0.0000000   0.0000000
 AtZNuc=   1.0000000   1.0000000   1.0000000   1.0000000   1.0000000   8.0000000   8.0000000   8.0000000  16.0000000  16.0000000

  Atom        21          22          23          24          25          26          27          28          29          30
 IAtWgt=          32          16          16          16          16          16          16          12          12          12
 AtmWgt=  31.9720718  15.9949146  15.9949146  15.9949146  15.9949146  15.9949146  15.9949146  12.0000000  12.0000000  12.0000000
 NucSpn=           0           0           0           0           0           0           0           0           0           0
 AtZEff=  -0.0000000  -0.0000000  -0.0000000  -0.0000000  -0.0000000  -0.0000000  -0.0000000  -0.0000000  -0.0000000  -0.0000000
 NQMom=    0.0000000   0.0000000   0.0000000   0.0000000   0.0000000   0.0000000   0.0000000   0.0000000   0.0000000   0.0000000
 NMagM=    0.0000000   0.0000000   0.0000000   0.0000000   0.0000000   0.0000000   0.0000000   0.0000000   0.0000000   0.0000000
 AtZNuc=  16.0000000   8.0000000   8.0000000   8.0000000   8.0000000   8.0000000   8.0000000   6.0000000   6.0000000   6.0000000

  Atom        31          32          33          34          35          36          37          38          39          40
 IAtWgt=          19          19          19          19          19          19          19          19          19          12
 AtmWgt=  18.9984032  18.9984032  18.9984032  18.9984032  18.9984032  18.9984032  18.9984032  18.9984032  18.9984032  12.0000000
 NucSpn=           1           1           1           1           1           1           1           1           1           0
 AtZEff=  -0.0000000  -0.0000000  -0.0000000  -0.0000000  -0.0000000  -0.0000000  -0.0000000  -0.0000000  -0.0000000  -0.0000000
 NQMom=    0.0000000   0.0000000   0.0000000   0.0000000   0.0000000   0.0000000   0.0000000   0.0000000   0.0000000   0.0000000
 NMagM=    2.6288670   2.6288670   2.6288670   2.6288670   2.6288670   2.6288670   2.6288670   2.6288670   2.6288670   0.0000000
 AtZNuc=   9.0000000   9.0000000   9.0000000   9.0000000   9.0000000   9.0000000   9.0000000   9.0000000   9.0000000   6.0000000

  Atom        41          42          43          44          45          46          47          48          49          50
 IAtWgt=          12          12          12          12          12          12           1           1           1          14
 AtmWgt=  12.0000000  12.0000000  12.0000000  12.0000000  12.0000000  12.0000000   1.0078250   1.0078250   1.0078250  14.0030740
 NucSpn=           0           0           0           0           0           0           1           1           1           2
 AtZEff=  -0.0000000  -0.0000000  -0.0000000  -0.0000000  -0.0000000  -0.0000000  -0.0000000  -0.0000000  -0.0000000  -0.0000000
 NQMom=    0.0000000   0.0000000   0.0000000   0.0000000   0.0000000   0.0000000   0.0000000   0.0000000   0.0000000   2.0440000
 NMagM=    0.0000000   0.0000000   0.0000000   0.0000000   0.0000000   0.0000000   2.7928460   2.7928460   2.7928460   0.4037610
 AtZNuc=   6.0000000   6.0000000   6.0000000   6.0000000   6.0000000   6.0000000   1.0000000   1.0000000   1.0000000   7.0000000

  Atom        51          52          53          54          55          56          57          58          59          60
 IAtWgt=          14          14          14          12           1          12           1           1          45           1
 AtmWgt=  14.0030740  14.0030740  14.0030740  12.0000000   1.0078250  12.0000000   1.0078250   1.0078250  44.9559136   1.0078250
 NucSpn=           2           2           2           0           1           0           1           1           7           1
 AtZEff=  -0.0000000  -0.0000000  -0.0000000  -0.0000000  -0.0000000  -0.0000000  -0.0000000  -0.0000000  -0.0000000  -0.0000000
 NQMom=    2.0440000   2.0440000   2.0440000   0.0000000   0.0000000   0.0000000   0.0000000   0.0000000 -22.0000000   0.0000000
 NMagM=    0.4037610   0.4037610   0.4037610   0.0000000   2.7928460   0.0000000   2.7928460   2.7928460   4.7564830   2.7928460
 AtZNuc=   7.0000000   7.0000000   7.0000000   6.0000000   1.0000000   6.0000000   1.0000000   1.0000000  21.0000000   1.0000000

  Atom        61          62          63          64          65          66          67          68          69          70
 IAtWgt=          12          12          12          12           1          12           1          12           1           1
 AtmWgt=  12.0000000  12.0000000  12.0000000  12.0000000   1.0078250  12.0000000   1.0078250  12.0000000   1.0078250   1.0078250
 NucSpn=           0           0           0           0           1           0           1           0           1           1
 AtZEff=  -0.0000000  -0.0000000  -0.0000000  -0.0000000  -0.0000000  -0.0000000  -0.0000000  -0.0000000  -0.0000000  -0.0000000
 NQMom=    0.0000000   0.0000000   0.0000000   0.0000000   0.0000000   0.0000000   0.0000000   0.0000000   0.0000000   0.0000000
 NMagM=    0.0000000   0.0000000   0.0000000   0.0000000   2.7928460   0.0000000   2.7928460   0.0000000   2.7928460   2.7928460
 AtZNuc=   6.0000000   6.0000000   6.0000000   6.0000000   1.0000000   6.0000000   1.0000000   6.0000000   1.0000000   1.0000000

  Atom        71
 IAtWgt=           1
 AtmWgt=   1.0078250
 NucSpn=           1
 AtZEff=  -0.0000000
 NQMom=    0.0000000
 NMagM=    2.7928460
 AtZNuc=   1.0000000
 Leave Link  101 at Wed Feb 19 02:48:17 2025, MaxMem= 82678120448 cpu:               8.4 elap:               0.9
 (Enter /sysapps/ubuntu-applications/gaussian-new/avx/g16/l103.exe)

 GradGradGradGradGradGradGradGradGradGradGradGradGradGradGradGradGradGrad
 Berny optimization.
 Initialization pass.
 Trust Radius=3.00D-01 FncErr=1.00D-07 GrdErr=1.00D-07 EigMax=2.50D+02 EigMin=1.00D-04
 Number of steps in this run=      2 maximum allowed number of steps=      2.
 GradGradGradGradGradGradGradGradGradGradGradGradGradGradGradGradGradGrad

 Leave Link  103 at Wed Feb 19 02:48:17 2025, MaxMem= 82678120448 cpu:               3.9 elap:               0.5
 (Enter /sysapps/ubuntu-applications/gaussian-new/avx/g16/l202.exe)
 Stoichiometry    C23H18F9N4O13S3Sc
 Framework group  C1[X(C23H18F9N4O13S3Sc)]
 Deg. of freedom   207
 Full point group                 C1      NOp   1
 Largest Abelian subgroup         C1      NOp   1
 Largest concise Abelian subgroup C1      NOp   1
                         Standard orientation:                         
 ---------------------------------------------------------------------
 Center     Atomic      Atomic             Coordinates (Angstroms)
 Number     Number       Type             X           Y           Z
 ---------------------------------------------------------------------
      1          6           0       -1.721743    0.133511    1.188409
      2          6           0       -1.389401    0.254273   -0.182251
      3          6           0       -0.673137   -0.211277    2.078141
      4          8           0        0.530200   -0.442592    1.753697
      5          8           0       -0.234375    0.259346   -0.692585
      6          8           0       -2.424835    0.321427   -1.008886
      7          8           0       -1.000965   -0.372024    3.354622
      8          6           0       -2.161025    0.431734   -2.404856
      9          6           0        0.040264   -0.704296    4.271197
     10          1           0       -3.131986    0.362699   -2.908601
     11          1           0       -1.494695   -0.375903   -2.741158
     12          1           0       -1.690235    1.397259   -2.632933
     13          1           0       -0.425474   -0.743919    5.261640
     14          1           0        0.827818    0.061590    4.253883
     15          1           0        0.481625   -1.679278    4.023178
     16          8           0        3.433006   -0.975305    0.840059
     17          8           0        2.386316   -0.316927   -1.823847
     18          8           0        0.652985    2.219518    1.086638
     19         16           0        1.261093    3.084556    0.045336
     20         16           0        4.107792    0.087997    1.647738
     21         16           0        2.029236   -1.770120   -1.818134
     22          8           0        2.056889    2.162745   -0.828751
     23          8           0        1.889753    4.317203    0.449215
     24          8           0        3.137589    1.220533    1.647536
     25          8           0        4.722002   -0.293379    2.892126
     26          8           0        1.385169   -2.025804   -0.506499
     27          8           0        1.364697   -2.289406   -2.993927
     28          6           0        3.679094   -2.646228   -1.743279
     29          6           0        5.453418    0.662919    0.533431
     30          6           0       -0.170352    3.589809   -1.046865
     31          9           0        3.689684   -3.476716   -0.719320
     32          9           0        4.658469   -1.772417   -1.619202
     33          9           0        3.846480   -3.329799   -2.861525
     34          9           0        4.920386    1.016646   -0.622688
     35          9           0        6.316875   -0.317063    0.345046
     36          9           0        6.066031    1.698087    1.075892
     37          9           0       -1.296249    3.066021   -0.586584
     38          9           0        0.031156    3.163546   -2.280567
     39          9           0       -0.275957    4.904103   -1.048735
     40          6           0       -4.448536   -0.036275    1.169092
     41          6           0       -4.555007   -1.601261    1.106642
     42          6           0       -5.851739   -2.050502    0.558413
     43          6           0       -4.502446   -2.087023    2.503849
     44          6           0       -1.239114   -3.063307    0.156164
     45          6           0       -2.720402   -2.870678   -1.714880
     46          6           0       -1.439274   -3.181265   -1.203039
     47          1           0       -0.289460   -3.297967    0.634850
     48          1           0       -2.960045   -2.984536   -2.774072
     49          1           0       -0.641553   -3.504925   -1.873945
     50          7           0       -6.893110   -2.400965    0.198786
     51          7           0       -4.480671   -2.427016    3.609018
     52          7           0       -3.454139   -2.263993    0.331588
     53          7           0       -3.694340   -2.420358   -0.954892
     54          6           0       -2.296255   -2.570887    0.927382
     55          1           0       -2.235424   -2.456058    2.011022
     56          6           0       -3.092535    0.475966    1.744438
     57          1           0       -3.208375    1.572006    1.751235
     58          1           0       -3.077061    0.185480    2.803818
     59         21           0        1.649148    0.253394    0.189085
     60          1           0       -5.142182    0.173343    2.001392
     61          6           0       -5.050371    0.770547    0.021038
     62          6           0       -5.344937    2.110609    0.322550
     63          6           0       -5.373143    0.296575   -1.255245
     64          6           0       -5.921145    2.956454   -0.623877
     65          1           0       -5.126797    2.497578    1.322321
     66          6           0       -5.962704    1.139544   -2.202735
     67          1           0       -5.153562   -0.732075   -1.540298
     68          6           0       -6.234138    2.472685   -1.896495
     69          1           0       -6.135823    3.994571   -0.360542
     70          1           0       -6.203924    0.743149   -3.191858
     71          1           0       -6.690671    3.129011   -2.640629
 ---------------------------------------------------------------------
 Rotational constants (GHZ):           0.0810017           0.0385176           0.0343512
 Leave Link  202 at Wed Feb 19 02:48:18 2025, MaxMem= 82678120448 cpu:               9.3 elap:               1.1
 (Enter /sysapps/ubuntu-applications/gaussian-new/avx/g16/l301.exe)
 General basis read from cards:  (5D, 7F)
 Centers:      10     11     12     13     14     15     47     48     49     55
 Centers:      57     58     60     65     67     69     70     71
 S 3 1.00
     Exponent=  1.3010701000D+01 Coefficients=  1.9682158000D-02
     Exponent=  1.9622572000D+00 Coefficients=  1.3796524000D-01
     Exponent=  4.4453796000D-01 Coefficients=  4.7831935000D-01
 S 1 1.00
     Exponent=  1.2194962000D-01 Coefficients=  1.0000000000D+00
 P 1 1.00
     Exponent=  8.0000000000D-01 Coefficients=  1.0000000000D+00
 ****
 Centers:       1      2      3      8      9     28     29     30     40     41
 Centers:      42     43     44     45     46     54     56     61     62     63
 Centers:      64     66     68
 S 5 1.00
     Exponent=  1.2384016938D+03 Coefficients=  5.4568832082D-03
     Exponent=  1.8629004992D+02 Coefficients=  4.0638409211D-02
     Exponent=  4.2251176346D+01 Coefficients=  1.8025593888D-01
     Exponent=  1.1676557932D+01 Coefficients=  4.6315121755D-01
     Exponent=  3.5930506482D+00 Coefficients=  4.4087173314D-01
 S 1 1.00
     Exponent=  4.0245147363D-01 Coefficients=  1.0000000000D+00
 S 1 1.00
     Exponent=  1.3090182668D-01 Coefficients=  1.0000000000D+00
 P 3 1.00
     Exponent=  9.4680970621D+00 Coefficients=  3.8387871728D-02
     Exponent=  2.0103545142D+00 Coefficients=  2.1117025112D-01
     Exponent=  5.4771004707D-01 Coefficients=  5.1328172114D-01
 P 1 1.00
     Exponent=  1.5268613795D-01 Coefficients=  1.0000000000D+00
 D 1 1.00
     Exponent=  8.0000000000D-01 Coefficients=  1.0000000000D+00
 ****
 Centers:      50     51     52     53
 S 5 1.00
     Exponent=  1.7128415853D+03 Coefficients= -5.3934125305D-03
     Exponent=  2.5764812677D+02 Coefficients= -4.0221581118D-02
     Exponent=  5.8458245853D+01 Coefficients= -1.7931144990D-01
     Exponent=  1.6198367905D+01 Coefficients= -4.6376317823D-01
     Exponent=  5.0052600809D+00 Coefficients= -4.4171422662D-01
 S 1 1.00
     Exponent=  5.8731856571D-01 Coefficients=  1.0000000000D+00
 S 1 1.00
     Exponent=  1.8764592253D-01 Coefficients=  1.0000000000D+00
 P 3 1.00
     Exponent=  1.3571470233D+01 Coefficients= -4.0072398852D-02
     Exponent=  2.9257372874D+00 Coefficients= -2.1807045028D-01
     Exponent=  7.9927750754D-01 Coefficients= -5.1294466049D-01
 P 1 1.00
     Exponent=  2.1954348034D-01 Coefficients=  1.0000000000D+00
 D 1 1.00
     Exponent=  1.0000000000D+00 Coefficients=  1.0000000000D+00
 ****
 Centers:       4      5      6      7     16     17     18     22     23     24
 Centers:      25     26     27
 S 5 1.00
     Exponent=  2.2661767785D+03 Coefficients= -5.3431809926D-03
     Exponent=  3.4087010191D+02 Coefficients= -3.9890039230D-02
     Exponent=  7.7363135167D+01 Coefficients= -1.7853911985D-01
     Exponent=  2.1479644940D+01 Coefficients= -4.6427684959D-01
     Exponent=  6.6589433124D+00 Coefficients= -4.4309745172D-01
 S 1 1.00
     Exponent=  8.0975975668D-01 Coefficients=  1.0000000000D+00
 S 1 1.00
     Exponent=  2.5530772234D-01 Coefficients=  1.0000000000D+00
 P 3 1.00
     Exponent=  1.7721504317D+01 Coefficients=  4.3394573193D-02
     Exponent=  3.8635505440D+00 Coefficients=  2.3094120765D-01
     Exponent=  1.0480920883D+00 Coefficients=  5.1375311064D-01
 P 1 1.00
     Exponent=  2.7641544411D-01 Coefficients=  1.0000000000D+00
 D 1 1.00
     Exponent=  1.2000000000D+00 Coefficients=  1.0000000000D+00
 ****
 Centers:      31     32     33     34     35     36     37     38     39
 S 5 1.00
     Exponent=  2.8948325990D+03 Coefficients= -5.3408255515D-03
     Exponent=  4.3541939120D+02 Coefficients= -3.9904258866D-02
     Exponent=  9.8843328866D+01 Coefficients= -1.7912768038D-01
     Exponent=  2.7485198001D+01 Coefficients= -4.6758090825D-01
     Exponent=  8.5405498171D+00 Coefficients= -4.4653131020D-01
 S 1 1.00
     Exponent=  1.0654578038D+00 Coefficients=  1.0000000000D+00
 S 1 1.00
     Exponent=  3.3247346748D-01 Coefficients=  1.0000000000D+00
 P 3 1.00
     Exponent=  2.2696633924D+01 Coefficients= -4.5212874436D-02
     Exponent=  4.9872339257D+00 Coefficients= -2.3754317067D-01
     Exponent=  1.3491613954D+00 Coefficients= -5.1287353587D-01
 P 1 1.00
     Exponent=  3.4829881977D-01 Coefficients=  1.0000000000D+00
 D 1 1.00
     Exponent=  1.4000000000D+00 Coefficients=  1.0000000000D+00
 ****
 Centers:      19     20     21
 S 5 1.00
     Exponent=  9.1849303010D+03 Coefficients= -2.2294387756D-03
     Exponent=  1.3815105503D+03 Coefficients= -1.6683029937D-02
     Exponent=  3.1387147580D+02 Coefficients= -7.5262436116D-02
     Exponent=  8.8053870623D+01 Coefficients= -1.9376827038D-01
     Exponent=  2.7039914905D+01 Coefficients= -1.7718020803D-01
 S 3 1.00
     Exponent=  4.5648731303D+01 Coefficients= -1.0736062573D-01
     Exponent=  4.9664522326D+00 Coefficients=  6.5066293018D-01
     Exponent=  2.0116242047D+00 Coefficients=  5.9712155354D-01
 S 1 1.00
     Exponent=  3.5661077013D-01 Coefficients=  1.0000000000D+00
 S 1 1.00
     Exponent=  1.3507221477D-01 Coefficients=  1.0000000000D+00
 P 5 1.00
     Exponent=  2.6198233439D+02 Coefficients= -9.2729929822D-03
     Exponent=  6.1306894736D+01 Coefficients= -6.6547669241D-02
     Exponent=  1.9103729887D+01 Coefficients= -2.4828595903D-01
     Exponent=  6.6567720378D+00 Coefficients= -4.8703847402D-01
     Exponent=  2.3959635161D+00 Coefficients= -3.9337850312D-01
 P 1 1.00
     Exponent=  6.1776161679D-01 Coefficients=  1.0000000000D+00
 P 1 1.00
     Exponent=  1.6993376871D-01 Coefficients=  1.0000000000D+00
 D 1 1.00
     Exponent=  5.5000000000D-01 Coefficients=  1.0000000000D+00
 ****
 Centers:      59
 S 8 1.00
     Exponent=  1.9161291874D+05 Coefficients=  2.3076475942D-04
     Exponent=  2.8723850363D+04 Coefficients=  1.7890329946D-03
     Exponent=  6.5370116490D+03 Coefficients=  9.2990401140D-03
     Exponent=  1.8503097171D+03 Coefficients=  3.7739438011D-02
     Exponent=  6.0238855156D+02 Coefficients=  1.2227148359D-01
     Exponent=  2.1617324766D+02 Coefficients=  2.8814821470D-01
     Exponent=  8.3712517880D+01 Coefficients=  4.0517543099D-01
     Exponent=  3.2908707189D+01 Coefficients=  2.0566019623D-01
 S 4 1.00
     Exponent=  2.1134393234D+02 Coefficients= -2.4527991462D-02
     Exponent=  6.5128920139D+01 Coefficients= -1.1570158142D-01
     Exponent=  1.0034311535D+01 Coefficients=  5.5995283317D-01
     Exponent=  4.1596884597D+00 Coefficients=  5.6087765073D-01
 S 2 1.00
     Exponent=  6.0009041613D+00 Coefficients= -2.2840494325D-01
     Exponent=  9.8255784150D-01 Coefficients=  7.1948970378D-01
 S 1 1.00
     Exponent=  4.2483192773D-01 Coefficients=  1.0000000000D+00
 S 1 1.00
     Exponent=  7.7185462096D-02 Coefficients=  1.0000000000D+00
 S 1 1.00
     Exponent=  3.0147219702D-02 Coefficients=  1.0000000000D+00
 P 6 1.00
     Exponent=  9.4734122823D+02 Coefficients=  2.4737208744D-03
     Exponent=  2.2409699732D+02 Coefficients=  1.9742967060D-02
     Exponent=  7.1560334882D+01 Coefficients=  9.0357147549D-02
     Exponent=  2.6444824490D+01 Coefficients=  2.5201602503D-01
     Exponent=  1.0393798285D+01 Coefficients=  3.9675535929D-01
     Exponent=  4.1606304559D+00 Coefficients=  2.3208624517D-01
 P 3 1.00
     Exponent=  1.5565737135D+01 Coefficients= -2.7129423974D-02
     Exponent=  2.1121544865D+00 Coefficients=  5.5109256629D-01
     Exponent=  8.4184709021D-01 Coefficients=  1.0090635806D+00
 P 1 1.00
     Exponent=  3.2297542652D-01 Coefficients=  1.0000000000D+00
 P 1 1.00
     Exponent=  8.9748000000D-02 Coefficients=  1.0000000000D+00
 D 4 1.00
     Exponent=  3.0989390993D+01 Coefficients=  1.1902837431D-02
     Exponent=  8.6905465069D+00 Coefficients=  6.7655856850D-02
     Exponent=  2.9520256337D+00 Coefficients=  2.1332539722D-01
     Exponent=  1.0761910745D+00 Coefficients=  3.8391075578D-01
 D 1 1.00
     Exponent=  3.8338915095D-01 Coefficients=  4.3354716259D-01
 D 1 1.00
     Exponent=  1.2534686113D-01 Coefficients=  2.4509263822D-01
 D 1 1.00
     Exponent=  4.1000000000D-02 Coefficients=  1.0000000000D+00
 F 1 1.00
     Exponent=  3.4500000000D-01 Coefficients=  1.0000000000D+00
 ****
 Ernie: Thresh=  0.10000D-02 Tol=  0.10000D-05 Strict=F.
 There are   934 symmetry adapted cartesian basis functions of A   symmetry.
 There are   875 symmetry adapted basis functions of A   symmetry.
   875 basis functions,  1564 primitive gaussians,   934 cartesian basis functions
   219 alpha electrons      219 beta electrons
       nuclear repulsion energy     10739.0612285249 Hartrees.
 IExCor= 7252 DFT=T Ex+Corr=MN15 ExCW=0 ScaHFX=  0.440000
 ScaDFX=  1.000000  1.000000  1.000000  1.000000 ScalE2=  1.000000  1.000000
 IRadAn=      5 IRanWt=     -1 IRanGd=            0 ICorTp=0 IEmpDi=  4
 NAtoms=   71 NActive=   71 NUniq=   71 SFac= 1.00D+00 NAtFMM=   60 NAOKFM=T Big=T
 Integral buffers will be    131072 words long.
 Raffenetti 2 integral format.
 Two-electron integral symmetry is turned on.
 Force inversion solution in PCM.
 ------------------------------------------------------------------------------
 Polarizable Continuum Model (PCM)
 =================================
 Model                : PCM.
 Atomic radii         : SMD-Coulomb.
 Polarization charges : Total charges.
 Charge compensation  : None.
 Solution method      : Matrix inversion.
 Cavity type          : VdW (van der Waals Surface) (Alpha=1.000).
 Cavity algorithm     : GePol (No added spheres)
                        Default sphere list used, NSphG=   71.
                        Lebedev-Laikov grids with approx.  5.0 points / Ang**2.
                        Smoothing algorithm: York/Karplus (Gamma=1.0000).
                        Polarization charges: spherical gaussians, with
                                              point-specific exponents (IZeta= 3).
                        Self-potential: point-specific (ISelfS= 7).
                        Self-field    : sphere-specific E.n sum rule (ISelfD= 2).
 1st derivatives      : Analytical E(r).r(x)/FMM algorithm (CHGder, D1EAlg=3).
                        Cavity 1st derivative terms included.
 2nd derivatives      : Analytical E(r).r(xy)/FMM algorithm (CHGder, D2EAlg=3).
                        Cavity 2nd derivative terms included.
 Solvent              : DiChloroEthane, Eps=  10.125000 Eps(inf)=   2.087447
 ------------------------------------------------------------------------------
 GePol: Number of generator spheres                  =      71
 GePol: Total number of spheres                      =      71
 GePol: Number of exposed spheres                    =      70 ( 98.59%)
 GePol: Number of points                             =    4849
 GePol: Average weight of points                     =       0.13
 GePol: Minimum weight of points                     =   0.12D-11
 GePol: Maximum weight of points                     =    0.21501
 GePol: Number of points with low weight             =     329
 GePol: Fraction of low-weight points (<1% of avg)   =       6.78%
 GePol: Cavity surface area                          =    618.418 Ang**2
 GePol: Cavity volume                                =    761.615 Ang**3
 ------------------------------------------------------------------------------
 Atomic radii for non-electrostatic terms: SMD-CDS.
 ------------------------------------------------------------------------------
 PCM non-electrostatic energy =         0.0058124238 Hartrees.
 Nuclear repulsion after PCM non-electrostatic terms =    10739.0670409487 Hartrees.
 Leave Link  301 at Wed Feb 19 02:48:20 2025, MaxMem= 82678120448 cpu:              14.4 elap:               1.7
 (Enter /sysapps/ubuntu-applications/gaussian-new/avx/g16/l302.exe)
 NPDir=0 NMtPBC=     1 NCelOv=     1 NCel=       1 NClECP=     1 NCelD=      1
         NCelK=      1 NCelE2=     1 NClLst=     1 CellRange=     0.0.
 One-electron integrals computed using PRISM.
 One-electron integral symmetry used in STVInt
 NBasis=   875 RedAO= T EigKep=  1.87D-04  NBF=   875
 NBsUse=   875 1.00D-06 EigRej= -1.00D+00 NBFU=   875
 Precomputing XC quadrature grid using
 IXCGrd= 4 IRadAn=           5 IRanWt=          -1 IRanGd=           0 AccXCQ= 0.00D+00.
 Generated NRdTot=       0 NPtTot=           0 NUsed=           0 NTot=          32
 NSgBfM=   899   892   892   893   899 MxSgAt=    71 MxSgA2=    71.
 Leave Link  302 at Wed Feb 19 02:50:07 2025, MaxMem= 82678120448 cpu:            1072.1 elap:             107.6
 (Enter /sysapps/ubuntu-applications/gaussian-new/avx/g16/l303.exe)
 DipDrv:  MaxL=1.
 Leave Link  303 at Wed Feb 19 02:50:11 2025, MaxMem= 82678120448 cpu:              33.5 elap:               3.8
 (Enter /sysapps/ubuntu-applications/gaussian-new/avx/g16/l401.exe)
 ExpMin= 3.01D-02 ExpMax= 1.92D+05 ExpMxC= 1.85D+03 IAcc=3 IRadAn=         5 AccDes= 0.00D+00
 Harris functional with IExCor= 1009 and IRadAn=       5 diagonalized for initial guess.
 HarFok:  IExCor= 1009 AccDes= 0.00D+00 IRadAn=         5 IDoV= 1 UseB2=F ITyADJ=14
 ICtDFT=  3500011 ScaDFX=  1.000000  1.000000  1.000000  1.000000
 FoFCou: FMM=F IPFlag=           0 FMFlag=      100000 FMFlg1=        2001
         NFxFlg=           0 DoJE=T BraDBF=F KetDBF=T FulRan=T
         wScrn=  0.000000 ICntrl=       500 IOpCl=  0 I1Cent=   200000004 NGrid=           0
         NMat0=    1 NMatS0=      1 NMatT0=    0 NMatD0=    1 NMtDS0=    0 NMtDT0=    0
 Petite list used in FoFCou.
 Harris En= -4932.10786943167    
 JPrj=0 DoOrth=F DoCkMO=F.
 Leave Link  401 at Wed Feb 19 02:51:16 2025, MaxMem= 82678120448 cpu:             642.1 elap:              64.4
 (Enter /sysapps/ubuntu-applications/gaussian-new/avx/g16/l502.exe)
 Integral symmetry usage will be decided dynamically.
 Closed shell SCF:
 Using DIIS extrapolation, IDIIS=  1040.
 NGot= 82678120448 LenX= 82676343087 LenY= 82675469797
 Requested convergence on RMS density matrix=1.00D-08 within 500 cycles.
 Requested convergence on MAX density matrix=1.00D-06.
 Requested convergence on             energy=1.00D-06.
 No special actions if energy rises.
 Fock matrices will be formed incrementally for  20 cycles.

 Cycle   1  Pass 1  IDiag  1:
 FoFJK:  IHMeth= 1 ICntrl=       0 DoSepK=F KAlg= 0 I1Cent=           0 FoldK=F
 IRaf= 830000000 NMat=       1 IRICut=       1 DoRegI=T DoRafI=F ISym2E= 0 IDoP0=0 IntGTp=1.
 FoFCou: FMM=T IPFlag=           0 FMFlag=      100000 FMFlg1=        2001
         NFxFlg=           0 DoJE=F BraDBF=F KetDBF=F FulRan=T
         wScrn=  0.000000 ICntrl=         0 IOpCl=  0 I1Cent=           0 NGrid=           0
         NMat0=    1 NMatS0=      1 NMatT0=    0 NMatD0=    1 NMtDS0=    0 NMtDT0=    0
 Symmetry not used in FoFCou.
 FMM levels:  10  Number of levels for PrismC:   9
 Inv3:  Mode=1 IEnd=    70538403.
 Iteration    1 A*A^-1 deviation from unit magnitude is 7.77D-15 for   4826.
 Iteration    1 A*A^-1 deviation from orthogonality  is 5.80D-15 for   4837   4372.
 Iteration    1 A^-1*A deviation from unit magnitude is 7.77D-15 for   4826.
 Iteration    1 A^-1*A deviation from orthogonality  is 2.73D-15 for   4844   4482.
 E= -4930.39740273310    
 DIIS: error= 2.29D-02 at cycle   1 NSaved=   1.
 NSaved= 1 IEnMin= 1 EnMin= -4930.39740273310     IErMin= 1 ErrMin= 2.29D-02
 ErrMax= 2.29D-02  0.00D+00 EMaxC= 1.00D-01 BMatC= 1.99D+00 BMatP= 1.99D+00
 IDIUse=3 WtCom= 7.71D-01 WtEn= 2.29D-01
 Coeff-Com:  0.100D+01
 Coeff-En:   0.100D+01
 Coeff:      0.100D+01
 Gap=     0.095 Goal=   None    Shift=    0.000
 GapD=    0.095 DampG=0.500 DampE=0.250 DampFc=0.1250 IDamp=-1.
 Damping current iteration by 1.25D-01
 RMSDP=3.74D-03 MaxDP=3.51D-01              OVMax= 3.75D-01

 Cycle   2  Pass 1  IDiag  1:
 RMSU=  4.67D-04    CP:  9.99D-01
 E= -4930.75883448534     Delta-E=       -0.361431752241 Rises=F Damp=T
 DIIS: error= 1.66D-02 at cycle   2 NSaved=   2.
 NSaved= 2 IEnMin= 2 EnMin= -4930.75883448534     IErMin= 2 ErrMin= 1.66D-02
 ErrMax= 1.66D-02  0.00D+00 EMaxC= 1.00D-01 BMatC= 9.75D-01 BMatP= 1.99D+00
 IDIUse=3 WtCom= 8.34D-01 WtEn= 1.66D-01
 Coeff-Com: -0.212D+01 0.312D+01
 Coeff-En:   0.000D+00 0.100D+01
 Coeff:     -0.177D+01 0.277D+01
 Gap=     0.161 Goal=   None    Shift=    0.000
 RMSDP=1.39D-03 MaxDP=9.36D-02 DE=-3.61D-01 OVMax= 2.93D-01

 Cycle   3  Pass 1  IDiag  1:
 RMSU=  8.44D-04    CP:  9.92D-01  3.00D+00
 E= -4931.87545598762     Delta-E=       -1.116621502273 Rises=F Damp=F
 DIIS: error= 6.18D-03 at cycle   3 NSaved=   3.
 NSaved= 3 IEnMin= 3 EnMin= -4931.87545598762     IErMin= 3 ErrMin= 6.18D-03
 ErrMax= 6.18D-03  0.00D+00 EMaxC= 1.00D-01 BMatC= 4.99D-02 BMatP= 9.75D-01
 IDIUse=3 WtCom= 9.38D-01 WtEn= 6.18D-02
 Coeff-Com: -0.723D+00 0.110D+01 0.621D+00
 Coeff-En:   0.000D+00 0.000D+00 0.100D+01
 Coeff:     -0.678D+00 0.103D+01 0.644D+00
 Gap=     0.154 Goal=   None    Shift=    0.000
 RMSDP=4.03D-04 MaxDP=3.67D-02 DE=-1.12D+00 OVMax= 4.59D-02

 Cycle   4  Pass 1  IDiag  1:
 RMSU=  3.47D-04    CP:  9.94D-01  3.00D+00  7.59D-01
 E= -4931.90153240526     Delta-E=       -0.026076417640 Rises=F Damp=F
 DIIS: error= 4.69D-03 at cycle   4 NSaved=   4.
 NSaved= 4 IEnMin= 4 EnMin= -4931.90153240526     IErMin= 4 ErrMin= 4.69D-03
 ErrMax= 4.69D-03  0.00D+00 EMaxC= 1.00D-01 BMatC= 2.46D-02 BMatP= 4.99D-02
 IDIUse=3 WtCom= 9.53D-01 WtEn= 4.69D-02
 Coeff-Com: -0.157D+00 0.239D+00 0.411D+00 0.507D+00
 Coeff-En:   0.000D+00 0.000D+00 0.312D+00 0.688D+00
 Coeff:     -0.150D+00 0.228D+00 0.406D+00 0.515D+00
 Gap=     0.157 Goal=   None    Shift=    0.000
 RMSDP=1.90D-04 MaxDP=1.80D-02 DE=-2.61D-02 OVMax= 2.50D-02

 Cycle   5  Pass 1  IDiag  1:
 RMSU=  1.23D-04    CP:  9.94D-01  3.00D+00  8.25D-01  6.15D-01
 E= -4931.92013185387     Delta-E=       -0.018599448615 Rises=F Damp=F
 DIIS: error= 1.37D-03 at cycle   5 NSaved=   5.
 NSaved= 5 IEnMin= 5 EnMin= -4931.92013185387     IErMin= 5 ErrMin= 1.37D-03
 ErrMax= 1.37D-03  0.00D+00 EMaxC= 1.00D-01 BMatC= 1.71D-03 BMatP= 2.46D-02
 IDIUse=3 WtCom= 9.86D-01 WtEn= 1.37D-02
 Coeff-Com: -0.245D-01 0.305D-01 0.139D+00 0.265D+00 0.590D+00
 Coeff-En:   0.000D+00 0.000D+00 0.000D+00 0.000D+00 0.100D+01
 Coeff:     -0.242D-01 0.301D-01 0.137D+00 0.262D+00 0.596D+00
 Gap=     0.158 Goal=   None    Shift=    0.000
 RMSDP=5.22D-05 MaxDP=5.45D-03 DE=-1.86D-02 OVMax= 7.56D-03

 Cycle   6  Pass 1  IDiag  1:
 RMSU=  3.82D-05    CP:  9.93D-01  3.00D+00  8.37D-01  6.39D-01  7.33D-01
 E= -4931.92154270189     Delta-E=       -0.001410848019 Rises=F Damp=F
 DIIS: error= 4.28D-04 at cycle   6 NSaved=   6.
 NSaved= 6 IEnMin= 6 EnMin= -4931.92154270189     IErMin= 6 ErrMin= 4.28D-04
 ErrMax= 4.28D-04  0.00D+00 EMaxC= 1.00D-01 BMatC= 1.90D-04 BMatP= 1.71D-03
 IDIUse=3 WtCom= 9.96D-01 WtEn= 4.28D-03
 Coeff-Com:  0.206D-02-0.720D-02 0.328D-01 0.827D-01 0.311D+00 0.578D+00
 Coeff-En:   0.000D+00 0.000D+00 0.000D+00 0.000D+00 0.111D-01 0.989D+00
 Coeff:      0.205D-02-0.717D-02 0.327D-01 0.824D-01 0.310D+00 0.580D+00
 Gap=     0.159 Goal=   None    Shift=    0.000
 RMSDP=1.89D-05 MaxDP=1.82D-03 DE=-1.41D-03 OVMax= 2.72D-03

 Cycle   7  Pass 1  IDiag  1:
 RMSU=  1.40D-05    CP:  9.93D-01  3.00D+00  8.40D-01  6.48D-01  7.82D-01
                    CP:  7.36D-01
 E= -4931.92168397327     Delta-E=       -0.000141271381 Rises=F Damp=F
 DIIS: error= 1.25D-04 at cycle   7 NSaved=   7.
 NSaved= 7 IEnMin= 7 EnMin= -4931.92168397327     IErMin= 7 ErrMin= 1.25D-04
 ErrMax= 1.25D-04  0.00D+00 EMaxC= 1.00D-01 BMatC= 2.98D-05 BMatP= 1.90D-04
 IDIUse=3 WtCom= 9.99D-01 WtEn= 1.25D-03
 Coeff-Com:  0.302D-02-0.640D-02 0.178D-02 0.136D-01 0.106D+00 0.340D+00
 Coeff-Com:  0.542D+00
 Coeff-En:   0.000D+00 0.000D+00 0.000D+00 0.000D+00 0.000D+00 0.585D-01
 Coeff-En:   0.941D+00
 Coeff:      0.302D-02-0.639D-02 0.178D-02 0.136D-01 0.106D+00 0.340D+00
 Coeff:      0.543D+00
 Gap=     0.159 Goal=   None    Shift=    0.000
 RMSDP=6.36D-06 MaxDP=6.41D-04 DE=-1.41D-04 OVMax= 7.76D-04

 Cycle   8  Pass 1  IDiag  1:
 RMSU=  4.93D-06    CP:  9.93D-01  3.00D+00  8.41D-01  6.49D-01  7.94D-01
                    CP:  7.88D-01  7.82D-01
 E= -4931.92170738975     Delta-E=       -0.000023416482 Rises=F Damp=F
 DIIS: error= 3.00D-05 at cycle   8 NSaved=   8.
 NSaved= 8 IEnMin= 8 EnMin= -4931.92170738975     IErMin= 8 ErrMin= 3.00D-05
 ErrMax= 3.00D-05  0.00D+00 EMaxC= 1.00D-01 BMatC= 1.34D-06 BMatP= 2.98D-05
 IDIUse=1 WtCom= 1.00D+00 WtEn= 0.00D+00
 Coeff-Com:  0.430D-03-0.878D-03-0.365D-02-0.650D-02-0.538D-03 0.560D-01
 Coeff-Com:  0.203D+00 0.752D+00
 Coeff:      0.430D-03-0.878D-03-0.365D-02-0.650D-02-0.538D-03 0.560D-01
 Coeff:      0.203D+00 0.752D+00
 Gap=     0.159 Goal=   None    Shift=    0.000
 RMSDP=2.21D-06 MaxDP=2.10D-04 DE=-2.34D-05 OVMax= 5.46D-04

 Cycle   9  Pass 1  IDiag  1:
 RMSU=  1.77D-06    CP:  9.93D-01  3.00D+00  8.41D-01  6.50D-01  7.98D-01
                    CP:  8.10D-01  8.43D-01  9.45D-01
 E= -4931.92170876940     Delta-E=       -0.000001379651 Rises=F Damp=F
 DIIS: error= 6.38D-06 at cycle   9 NSaved=   9.
 NSaved= 9 IEnMin= 9 EnMin= -4931.92170876940     IErMin= 9 ErrMin= 6.38D-06
 ErrMax= 6.38D-06  0.00D+00 EMaxC= 1.00D-01 BMatC= 2.23D-07 BMatP= 1.34D-06
 IDIUse=1 WtCom= 1.00D+00 WtEn= 0.00D+00
 Coeff-Com: -0.106D-03 0.197D-03-0.184D-02-0.434D-02-0.890D-02-0.420D-02
 Coeff-Com:  0.439D-01 0.353D+00 0.623D+00
 Coeff:     -0.106D-03 0.197D-03-0.184D-02-0.434D-02-0.890D-02-0.420D-02
 Coeff:      0.439D-01 0.353D+00 0.623D+00
 Gap=     0.159 Goal=   None    Shift=    0.000
 RMSDP=8.41D-07 MaxDP=5.46D-05 DE=-1.38D-06 OVMax= 2.46D-04

 Cycle  10  Pass 1  IDiag  1:
 RMSU=  6.17D-07    CP:  9.93D-01  3.00D+00  8.41D-01  6.50D-01  7.99D-01
                    CP:  8.16D-01  8.63D-01  1.02D+00  8.83D-01
 E= -4931.92170900101     Delta-E=       -0.000000231606 Rises=F Damp=F
 DIIS: error= 2.20D-06 at cycle  10 NSaved=  10.
 NSaved=10 IEnMin=10 EnMin= -4931.92170900101     IErMin=10 ErrMin= 2.20D-06
 ErrMax= 2.20D-06  0.00D+00 EMaxC= 1.00D-01 BMatC= 2.60D-08 BMatP= 2.23D-07
 IDIUse=1 WtCom= 1.00D+00 WtEn= 0.00D+00
 Coeff-Com: -0.930D-04 0.180D-03-0.444D-03-0.135D-02-0.388D-02-0.846D-02
 Coeff-Com: -0.284D-02 0.809D-01 0.283D+00 0.653D+00
 Coeff:     -0.930D-04 0.180D-03-0.444D-03-0.135D-02-0.388D-02-0.846D-02
 Coeff:     -0.284D-02 0.809D-01 0.283D+00 0.653D+00
 Gap=     0.159 Goal=   None    Shift=    0.000
 RMSDP=3.28D-07 MaxDP=1.98D-05 DE=-2.32D-07 OVMax= 1.08D-04

 Cycle  11  Pass 1  IDiag  1:
 RMSU=  2.45D-07    CP:  9.93D-01  3.00D+00  8.41D-01  6.50D-01  8.00D-01
                    CP:  8.16D-01  8.70D-01  1.04D+00  9.49D-01  9.83D-01
 E= -4931.92170903090     Delta-E=       -0.000000029891 Rises=F Damp=F
 DIIS: error= 1.23D-06 at cycle  11 NSaved=  11.
 NSaved=11 IEnMin=11 EnMin= -4931.92170903090     IErMin=11 ErrMin= 1.23D-06
 ErrMax= 1.23D-06  0.00D+00 EMaxC= 1.00D-01 BMatC= 5.89D-09 BMatP= 2.60D-08
 IDIUse=1 WtCom= 1.00D+00 WtEn= 0.00D+00
 Coeff-Com: -0.366D-04 0.699D-04 0.125D-03 0.114D-03-0.379D-03-0.393D-02
 Coeff-Com: -0.108D-01-0.263D-01 0.256D-01 0.350D+00 0.665D+00
 Coeff:     -0.366D-04 0.699D-04 0.125D-03 0.114D-03-0.379D-03-0.393D-02
 Coeff:     -0.108D-01-0.263D-01 0.256D-01 0.350D+00 0.665D+00
 Gap=     0.159 Goal=   None    Shift=    0.000
 RMSDP=1.74D-07 MaxDP=1.35D-05 DE=-2.99D-08 OVMax= 6.96D-05

 Cycle  12  Pass 1  IDiag  1:
 RMSU=  9.61D-08    CP:  9.93D-01  3.00D+00  8.41D-01  6.50D-01  8.00D-01
                    CP:  8.17D-01  8.73D-01  1.06D+00  9.99D-01  1.09D+00
                    CP:  9.34D-01
 E= -4931.92170903851     Delta-E=       -0.000000007611 Rises=F Damp=F
 DIIS: error= 5.04D-07 at cycle  12 NSaved=  12.
 NSaved=12 IEnMin=12 EnMin= -4931.92170903851     IErMin=12 ErrMin= 5.04D-07
 ErrMax= 5.04D-07  0.00D+00 EMaxC= 1.00D-01 BMatC= 5.41D-10 BMatP= 5.89D-09
 IDIUse=1 WtCom= 1.00D+00 WtEn= 0.00D+00
 Coeff-Com:  0.488D-05-0.459D-05 0.105D-03 0.224D-03 0.333D-03-0.416D-03
 Coeff-Com: -0.413D-02-0.214D-01-0.276D-01 0.495D-01 0.275D+00 0.728D+00
 Coeff:      0.488D-05-0.459D-05 0.105D-03 0.224D-03 0.333D-03-0.416D-03
 Coeff:     -0.413D-02-0.214D-01-0.276D-01 0.495D-01 0.275D+00 0.728D+00
 Gap=     0.159 Goal=   None    Shift=    0.000
 RMSDP=6.43D-08 MaxDP=4.43D-06 DE=-7.61D-09 OVMax= 2.95D-05

 Cycle  13  Pass 1  IDiag  1:
 RMSU=  3.08D-08    CP:  9.93D-01  3.00D+00  8.41D-01  6.50D-01  8.00D-01
                    CP:  8.17D-01  8.74D-01  1.06D+00  1.01D+00  1.14D+00
                    CP:  1.03D+00  9.77D-01
 E= -4931.92170903941     Delta-E=       -0.000000000899 Rises=F Damp=F
 DIIS: error= 1.64D-07 at cycle  13 NSaved=  13.
 NSaved=13 IEnMin=13 EnMin= -4931.92170903941     IErMin=13 ErrMin= 1.64D-07
 ErrMax= 1.64D-07  0.00D+00 EMaxC= 1.00D-01 BMatC= 9.11D-11 BMatP= 5.41D-10
 IDIUse=1 WtCom= 1.00D+00 WtEn= 0.00D+00
 Coeff-Com:  0.895D-05-0.127D-04 0.397D-04 0.102D-03 0.198D-03 0.229D-03
 Coeff-Com: -0.951D-03-0.775D-02-0.156D-01-0.140D-01 0.648D-01 0.360D+00
 Coeff-Com:  0.613D+00
 Coeff:      0.895D-05-0.127D-04 0.397D-04 0.102D-03 0.198D-03 0.229D-03
 Coeff:     -0.951D-03-0.775D-02-0.156D-01-0.140D-01 0.648D-01 0.360D+00
 Coeff:      0.613D+00
 Gap=     0.159 Goal=   None    Shift=    0.000
 RMSDP=1.95D-08 MaxDP=1.22D-06 DE=-8.99D-10 OVMax= 8.10D-06

 Cycle  14  Pass 1  IDiag  1:
 RMSU=  1.18D-08    CP:  9.93D-01  3.00D+00  8.41D-01  6.50D-01  8.00D-01
                    CP:  8.17D-01  8.74D-01  1.06D+00  1.02D+00  1.15D+00
                    CP:  1.06D+00  1.04D+00  9.00D-01
 E= -4931.92170903959     Delta-E=       -0.000000000180 Rises=F Damp=F
 DIIS: error= 7.78D-08 at cycle  14 NSaved=  14.
 NSaved=14 IEnMin=14 EnMin= -4931.92170903959     IErMin=14 ErrMin= 7.78D-08
 ErrMax= 7.78D-08  0.00D+00 EMaxC= 1.00D-01 BMatC= 1.04D-11 BMatP= 9.11D-11
 IDIUse=1 WtCom= 1.00D+00 WtEn= 0.00D+00
 Coeff-Com:  0.340D-05-0.496D-05 0.131D-05 0.114D-04 0.352D-04 0.196D-03
 Coeff-Com:  0.253D-03 0.608D-04-0.222D-02-0.160D-01-0.164D-01 0.521D-01
 Coeff-Com:  0.274D+00 0.708D+00
 Coeff:      0.340D-05-0.496D-05 0.131D-05 0.114D-04 0.352D-04 0.196D-03
 Coeff:      0.253D-03 0.608D-04-0.222D-02-0.160D-01-0.164D-01 0.521D-01
 Coeff:      0.274D+00 0.708D+00
 Gap=     0.159 Goal=   None    Shift=    0.000
 RMSDP=8.67D-09 MaxDP=5.89D-07 DE=-1.80D-10 OVMax= 4.00D-06

 Error on total polarization charges =  0.03103
 SCF Done:  E(RMN15) =  -4931.92170904     A.U. after   14 cycles
            NFock= 14  Conv=0.87D-08     -V/T= 2.0065
 KE= 4.900252228338D+03 PE=-3.310637865116D+04 EE= 1.253513767284D+04
 SMD-CDS (non-electrostatic) energy       (kcal/mol) =       3.65
 (included in total energy above)
 Leave Link  502 at Wed Feb 19 03:28:53 2025, MaxMem= 82678120448 cpu:           21773.2 elap:            2256.8
 (Enter /sysapps/ubuntu-applications/gaussian-new/avx/g16/l801.exe)
 DoSCS=F DFT=T ScalE2(SS,OS)=  1.000000  1.000000
 Range of M.O.s used for correlation:     1   875
 NBasis=   875 NAE=   219 NBE=   219 NFC=     0 NFV=     0
 NROrb=    875 NOA=   219 NOB=   219 NVA=   656 NVB=   656

 **** Warning!!: The largest alpha MO coefficient is  0.11306244D+02

 Leave Link  801 at Wed Feb 19 03:28:54 2025, MaxMem= 82678120448 cpu:               4.0 elap:               0.7
 (Enter /sysapps/ubuntu-applications/gaussian-new/avx/g16/l1101.exe)
 Using compressed storage, NAtomX=    71.
 Will process     72 centers per pass.
 Leave Link 1101 at Wed Feb 19 03:30:18 2025, MaxMem= 82678120448 cpu:             773.2 elap:              84.8
 (Enter /sysapps/ubuntu-applications/gaussian-new/avx/g16/l1102.exe)
 Symmetrizing basis deriv contribution to polar:
 IMax=3 JMax=2 DiffMx= 0.00D+00
 Leave Link 1102 at Wed Feb 19 03:30:21 2025, MaxMem= 82678120448 cpu:              15.1 elap:               2.0
 (Enter /sysapps/ubuntu-applications/gaussian-new/avx/g16/l1110.exe)
 Forming Gx(P) for the SCF density, NAtomX=    71.
 Integral derivatives from FoFJK, PRISM(SPDF).
 Do as many integral derivatives as possible in FoFJK.
 G2DrvN: MDV=   82678114206.
 G2DrvN: will do    72 centers at a time, making    1 passes.
 Calling FoFCou, ICntrl=  3107 FMM=T I1Cent=   0 AccDes= 0.00D+00.
 FoFJK:  IHMeth= 1 ICntrl=    3107 DoSepK=F KAlg= 0 I1Cent=           0 FoldK=F
 IRaf=         0 NMat=       1 IRICut=       1 DoRegI=T DoRafI=F ISym2E= 0 IDoP0=0 IntGTp=1.
 FoFCou: FMM=T IPFlag=           0 FMFlag=      100000 FMFlg1=        2001
         NFxFlg=           0 DoJE=F BraDBF=F KetDBF=F FulRan=T
         wScrn=  0.000000 ICntrl=      3107 IOpCl=  0 I1Cent=           0 NGrid=           0
         NMat0=    1 NMatS0=      1 NMatT0=    0 NMatD0=    1 NMtDS0=    0 NMtDT0=    0
 Symmetry not used in FoFCou.
 FMM levels:  10  Number of levels for PrismC:   9
 NEqPCM:  Using equilibrium solvation (IEInf=0, Eps=  10.1250, EpsInf=   2.0874)
 G2PCM: DoFxE=T DoFxN=T DoGrad=T DoDP/DQ/DG/TGxP=FFFF NFrqRd=   0 IEInf=0 SqF1=F DoCFld=F IF1Alg=4.
 GePol: Maximum number of non-zero 1st derivatives   =     267
 End of G2Drv F.D. properties file   721 does not exist.
 End of G2Drv F.D. properties file   722 does not exist.
 End of G2Drv F.D. properties file   788 does not exist.
 Leave Link 1110 at Wed Feb 19 05:07:17 2025, MaxMem= 82678120448 cpu:           54612.7 elap:            5815.8
 (Enter /sysapps/ubuntu-applications/gaussian-new/avx/g16/l1002.exe)
 Minotr:  Closed shell wavefunction.
          IDoAtm=11111111111111111111111111111111111111111111111111
          IDoAtm=111111111111111111111
 NEqPCM:  Using equilibrium solvation (IEInf=0, Eps=  10.1250, EpsInf=   2.0874)
          Direct CPHF calculation.
          Differentiating once with respect to electric field.
                with respect to dipole field.
          Differentiating once with respect to nuclear coordinates.
          Requested convergence is 1.0D-08 RMS, and 1.0D-07 maximum.
          Secondary convergence is 1.0D-12 RMS, and 1.0D-12 maximum.
          NewPWx=T KeepS1=F KeepF1=F KeepIn=T MapXYZ=F SortEE=F KeepMc=T.
        21908 words used for storage of precomputed grid.
 Two-electron integrals replicated using symmetry.
          MDV=   82678120448 using IRadAn=       1.
          Solving linear equations simultaneously, MaxMat=      72.
 FoF2E skips out because all densities are zero.
 CalDSu exits because no D1Ps are significant.
 FoFJK:  IHMeth= 1 ICntrl=       0 DoSepK=F KAlg= 0 I1Cent=           0 FoldK=F
 IRaf= 770000000 NMat=      72 IRICut=       1 DoRegI=T DoRafI=F ISym2E= 2 IDoP0=3 IntGTp=3.
          There are   216 degrees of freedom in the 1st order CPHF.  IDoFFX=6 NUNeed=     3.
    216 vectors produced by pass  0 Test12= 1.44D-13 1.00D-09 XBig12= 2.77D+02 5.22D+00.
 AX will form    72 AO Fock derivatives at one time.
    213 vectors produced by pass  1 Test12= 1.44D-13 1.00D-09 XBig12= 5.52D+01 7.30D-01.
    213 vectors produced by pass  2 Test12= 1.44D-13 1.00D-09 XBig12= 1.42D+00 1.01D-01.
    213 vectors produced by pass  3 Test12= 1.44D-13 1.00D-09 XBig12= 2.31D-02 2.05D-02.
    213 vectors produced by pass  4 Test12= 1.44D-13 1.00D-09 XBig12= 1.94D-04 1.01D-03.
    213 vectors produced by pass  5 Test12= 1.44D-13 1.00D-09 XBig12= 8.69D-07 4.48D-05.
    176 vectors produced by pass  6 Test12= 1.44D-13 1.00D-09 XBig12= 3.03D-09 3.40D-06.
     52 vectors produced by pass  7 Test12= 1.44D-13 1.00D-09 XBig12= 9.71D-12 2.81D-07.
      3 vectors produced by pass  8 Test12= 1.44D-13 1.00D-09 XBig12= 3.10D-14 1.31D-08.
      2 vectors produced by pass  9 Test12= 1.44D-13 1.00D-09 XBig12= 1.25D-15 1.40D-09.
 InvSVY:  IOpt=1 It=  1 EMax= 1.07D-14
 Solved reduced A of dimension  1514 with   216 vectors.
 FullF1:  Do perturbations      1 to       3.
 Isotropic polarizability for W=    0.000000      473.37 Bohr**3.
 End of Minotr F.D. properties file   721 does not exist.
 End of Minotr F.D. properties file   722 does not exist.
 End of Minotr F.D. properties file   788 does not exist.
 Leave Link 1002 at Wed Feb 19 09:45:18 2025, MaxMem= 82678120448 cpu:          160982.2 elap:           16678.6
 (Enter /sysapps/ubuntu-applications/gaussian-new/avx/g16/l601.exe)
 Copying SCF densities to generalized density rwf, IOpCl= 0 IROHF=0.

 **********************************************************************

            Population analysis using the SCF density.

 **********************************************************************

 Orbital symmetries:
       Occupied  (A) (A) (A) (A) (A) (A) (A) (A) (A) (A) (A) (A)
                 (A) (A) (A) (A) (A) (A) (A) (A) (A) (A) (A) (A)
                 (A) (A) (A) (A) (A) (A) (A) (A) (A) (A) (A) (A)
                 (A) (A) (A) (A) (A) (A) (A) (A) (A) (A) (A) (A)
                 (A) (A) (A) (A) (A) (A) (A) (A) (A) (A) (A) (A)
                 (A) (A) (A) (A) (A) (A) (A) (A) (A) (A) (A) (A)
                 (A) (A) (A) (A) (A) (A) (A) (A) (A) (A) (A) (A)
                 (A) (A) (A) (A) (A) (A) (A) (A) (A) (A) (A) (A)
                 (A) (A) (A) (A) (A) (A) (A) (A) (A) (A) (A) (A)
                 (A) (A) (A) (A) (A) (A) (A) (A) (A) (A) (A) (A)
                 (A) (A) (A) (A) (A) (A) (A) (A) (A) (A) (A) (A)
                 (A) (A) (A) (A) (A) (A) (A) (A) (A) (A) (A) (A)
                 (A) (A) (A) (A) (A) (A) (A) (A) (A) (A) (A) (A)
                 (A) (A) (A) (A) (A) (A) (A) (A) (A) (A) (A) (A)
                 (A) (A) (A) (A) (A) (A) (A) (A) (A) (A) (A) (A)
                 (A) (A) (A) (A) (A) (A) (A) (A) (A) (A) (A) (A)
                 (A) (A) (A) (A) (A) (A) (A) (A) (A) (A) (A) (A)
                 (A) (A) (A) (A) (A) (A) (A) (A) (A) (A) (A) (A)
                 (A) (A) (A)
       Virtual   (A) (A) (A) (A) (A) (A) (A) (A) (A) (A) (A) (A)
                 (A) (A) (A) (A) (A) (A) (A) (A) (A) (A) (A) (A)
                 (A) (A) (A) (A) (A) (A) (A) (A) (A) (A) (A) (A)
                 (A) (A) (A) (A) (A) (A) (A) (A) (A) (A) (A) (A)
                 (A) (A) (A) (A) (A) (A) (A) (A) (A) (A) (A) (A)
                 (A) (A) (A) (A) (A) (A) (A) (A) (A) (A) (A) (A)
                 (A) (A) (A) (A) (A) (A) (A) (A) (A) (A) (A) (A)
                 (A) (A) (A) (A) (A) (A) (A) (A) (A) (A) (A) (A)
                 (A) (A) (A) (A) (A) (A) (A) (A) (A) (A) (A) (A)
                 (A) (A) (A) (A) (A) (A) (A) (A) (A) (A) (A) (A)
                 (A) (A) (A) (A) (A) (A) (A) (A) (A) (A) (A) (A)
                 (A) (A) (A) (A) (A) (A) (A) (A) (A) (A) (A) (A)
                 (A) (A) (A) (A) (A) (A) (A) (A) (A) (A) (A) (A)
                 (A) (A) (A) (A) (A) (A) (A) (A) (A) (A) (A) (A)
                 (A) (A) (A) (A) (A) (A) (A) (A) (A) (A) (A) (A)
                 (A) (A) (A) (A) (A) (A) (A) (A) (A) (A) (A) (A)
                 (A) (A) (A) (A) (A) (A) (A) (A) (A) (A) (A) (A)
                 (A) (A) (A) (A) (A) (A) (A) (A) (A) (A) (A) (A)
                 (A) (A) (A) (A) (A) (A) (A) (A) (A) (A) (A) (A)
                 (A) (A) (A) (A) (A) (A) (A) (A) (A) (A) (A) (A)
                 (A) (A) (A) (A) (A) (A) (A) (A) (A) (A) (A) (A)
                 (A) (A) (A) (A) (A) (A) (A) (A) (A) (A) (A) (A)
                 (A) (A) (A) (A) (A) (A) (A) (A) (A) (A) (A) (A)
                 (A) (A) (A) (A) (A) (A) (A) (A) (A) (A) (A) (A)
                 (A) (A) (A) (A) (A) (A) (A) (A) (A) (A) (A) (A)
                 (A) (A) (A) (A) (A) (A) (A) (A) (A) (A) (A) (A)
                 (A) (A) (A) (A) (A) (A) (A) (A) (A) (A) (A) (A)
                 (A) (A) (A) (A) (A) (A) (A) (A) (A) (A) (A) (A)
                 (A) (A) (A) (A) (A) (A) (A) (A) (A) (A) (A) (A)
                 (A) (A) (A) (A) (A) (A) (A) (A) (A) (A) (A) (A)
                 (A) (A) (A) (A) (A) (A) (A) (A) (A) (A) (A) (A)
                 (A) (A) (A) (A) (A) (A) (A) (A) (A) (A) (A) (A)
                 (A) (A) (A) (A) (A) (A) (A) (A) (A) (A) (A) (A)
                 (A) (A) (A) (A) (A) (A) (A) (A) (A) (A) (A) (A)
                 (A) (A) (A) (A) (A) (A) (A) (A) (A) (A) (A) (A)
                 (A) (A) (A) (A) (A) (A) (A) (A) (A) (A) (A) (A)
                 (A) (A) (A) (A) (A) (A) (A) (A) (A) (A) (A) (A)
                 (A) (A) (A) (A) (A) (A) (A) (A) (A) (A) (A) (A)
                 (A) (A) (A) (A) (A) (A) (A) (A) (A) (A) (A) (A)
                 (A) (A) (A) (A) (A) (A) (A) (A) (A) (A) (A) (A)
                 (A) (A) (A) (A) (A) (A) (A) (A) (A) (A) (A) (A)
                 (A) (A) (A) (A) (A) (A) (A) (A) (A) (A) (A) (A)
                 (A) (A) (A) (A) (A) (A) (A) (A) (A) (A) (A) (A)
                 (A) (A) (A) (A) (A) (A) (A) (A) (A) (A) (A) (A)
                 (A) (A) (A) (A) (A) (A) (A) (A) (A) (A) (A) (A)
                 (A) (A) (A) (A) (A) (A) (A) (A) (A) (A) (A) (A)
                 (A) (A) (A) (A) (A) (A) (A) (A) (A) (A) (A) (A)
                 (A) (A) (A) (A) (A) (A) (A) (A) (A) (A) (A) (A)
                 (A) (A) (A) (A) (A) (A) (A) (A) (A) (A) (A) (A)
                 (A) (A) (A) (A) (A) (A) (A) (A) (A) (A) (A) (A)
                 (A) (A) (A) (A) (A) (A) (A) (A) (A) (A) (A) (A)
                 (A) (A) (A) (A) (A) (A) (A) (A) (A) (A) (A) (A)
                 (A) (A) (A) (A) (A) (A) (A) (A) (A) (A) (A) (A)
                 (A) (A) (A) (A) (A) (A) (A) (A) (A) (A) (A) (A)
                 (A) (A) (A) (A) (A) (A) (A) (A)
 The electronic state is 1-A.
 Alpha  occ. eigenvalues -- -160.19800 -88.05842 -88.05240 -88.05108 -24.33878
 Alpha  occ. eigenvalues --  -24.33813 -24.33812 -24.33793 -24.33689 -24.33501
 Alpha  occ. eigenvalues --  -24.33342 -24.33323 -24.33302 -18.87519 -18.87255
 Alpha  occ. eigenvalues --  -18.84364 -18.84225 -18.83729 -18.83547 -18.83449
 Alpha  occ. eigenvalues --  -18.83367 -18.83193 -18.83080 -18.83029 -18.82889
 Alpha  occ. eigenvalues --  -18.82521 -17.18360 -14.48522 -14.48486 -14.48401
 Alpha  occ. eigenvalues --  -14.28910 -14.21099 -14.15507 -14.14713 -10.33231
 Alpha  occ. eigenvalues --  -10.32904 -10.32879 -10.23157 -10.20453 -10.20373
 Alpha  occ. eigenvalues --  -10.18319 -10.15143 -10.14619 -10.14122 -10.13062
 Alpha  occ. eigenvalues --  -10.12636 -10.11543 -10.10769 -10.10539 -10.07938
 Alpha  occ. eigenvalues --  -10.07738 -10.06014 -10.05909 -10.05896 -10.05770
 Alpha  occ. eigenvalues --  -10.05750 -10.05596  -7.95661  -7.95041  -7.94880
 Alpha  occ. eigenvalues --   -6.15174  -6.15132  -6.15013  -6.14555  -6.14511
 Alpha  occ. eigenvalues --   -6.14405  -6.14395  -6.14343  -6.14258  -2.14675
 Alpha  occ. eigenvalues --   -1.39321  -1.39133  -1.39018  -1.37596  -1.37407
 Alpha  occ. eigenvalues --   -1.37154  -1.27592  -1.27576  -1.27349  -1.27320
 Alpha  occ. eigenvalues --   -1.27111  -1.27020  -1.20189  -1.19388  -1.19086
 Alpha  occ. eigenvalues --   -1.17665  -1.16045  -1.15409  -1.07290  -1.06408
 Alpha  occ. eigenvalues --   -1.06109  -1.05835  -1.05058  -1.04727  -1.04475
 Alpha  occ. eigenvalues --   -1.04221  -1.00837  -0.97711  -0.96785  -0.93057
 Alpha  occ. eigenvalues --   -0.90996  -0.88587  -0.86108  -0.81828  -0.79938
 Alpha  occ. eigenvalues --   -0.79120  -0.79025  -0.78849  -0.78587  -0.78117
 Alpha  occ. eigenvalues --   -0.76604  -0.75501  -0.73706  -0.71907  -0.71474
 Alpha  occ. eigenvalues --   -0.71316  -0.69005  -0.67909  -0.67568  -0.67488
 Alpha  occ. eigenvalues --   -0.67422  -0.67275  -0.67089  -0.67035  -0.65643
 Alpha  occ. eigenvalues --   -0.64910  -0.63550  -0.63015  -0.62710  -0.62000
 Alpha  occ. eigenvalues --   -0.61600  -0.61300  -0.61024  -0.59739  -0.59044
 Alpha  occ. eigenvalues --   -0.58178  -0.57140  -0.56967  -0.56507  -0.56398
 Alpha  occ. eigenvalues --   -0.56003  -0.55863  -0.55697  -0.55549  -0.55425
 Alpha  occ. eigenvalues --   -0.54960  -0.54831  -0.54704  -0.54622  -0.54129
 Alpha  occ. eigenvalues --   -0.54067  -0.53702  -0.53571  -0.53337  -0.53043
 Alpha  occ. eigenvalues --   -0.52646  -0.52565  -0.52314  -0.51670  -0.51322
 Alpha  occ. eigenvalues --   -0.51271  -0.51118  -0.51052  -0.50953  -0.50622
 Alpha  occ. eigenvalues --   -0.50110  -0.49878  -0.48875  -0.48802  -0.48410
 Alpha  occ. eigenvalues --   -0.48300  -0.47966  -0.47669  -0.47303  -0.46737
 Alpha  occ. eigenvalues --   -0.46637  -0.46203  -0.45949  -0.45754  -0.45271
 Alpha  occ. eigenvalues --   -0.45064  -0.44577  -0.44170  -0.44061  -0.43646
 Alpha  occ. eigenvalues --   -0.43268  -0.42643  -0.42472  -0.42205  -0.41738
 Alpha  occ. eigenvalues --   -0.41572  -0.41345  -0.40920  -0.40557  -0.40329
 Alpha  occ. eigenvalues --   -0.40109  -0.39717  -0.39624  -0.39359  -0.39153
 Alpha  occ. eigenvalues --   -0.38938  -0.38806  -0.38575  -0.38216  -0.38126
 Alpha  occ. eigenvalues --   -0.37805  -0.37528  -0.37296  -0.37049  -0.36971
 Alpha  occ. eigenvalues --   -0.36461  -0.36127  -0.35902  -0.35458  -0.35251
 Alpha  occ. eigenvalues --   -0.34890  -0.29281  -0.28643  -0.26057
 Alpha virt. eigenvalues --   -0.10172  -0.05834  -0.02680  -0.01662  -0.00310
 Alpha virt. eigenvalues --   -0.00220   0.00552   0.01476   0.01571   0.01706
 Alpha virt. eigenvalues --    0.03228   0.04412   0.05557   0.06088   0.06907
 Alpha virt. eigenvalues --    0.07940   0.08821   0.09049   0.09307   0.09755
 Alpha virt. eigenvalues --    0.09870   0.10098   0.10371   0.10473   0.10572
 Alpha virt. eigenvalues --    0.10853   0.11084   0.11253   0.11907   0.12169
 Alpha virt. eigenvalues --    0.12978   0.13346   0.13925   0.14027   0.14189
 Alpha virt. eigenvalues --    0.14770   0.14842   0.15070   0.15856   0.16031
 Alpha virt. eigenvalues --    0.16737   0.16959   0.17531   0.17911   0.18001
 Alpha virt. eigenvalues --    0.18391   0.18658   0.19074   0.19269   0.19318
 Alpha virt. eigenvalues --    0.20209   0.20650   0.20774   0.20978   0.21553
 Alpha virt. eigenvalues --    0.21977   0.22475   0.22826   0.23570   0.24181
 Alpha virt. eigenvalues --    0.24513   0.24783   0.24925   0.25359   0.25698
 Alpha virt. eigenvalues --    0.26121   0.26293   0.26567   0.26712   0.27238
 Alpha virt. eigenvalues --    0.27351   0.28188   0.28228   0.28663   0.29055
 Alpha virt. eigenvalues --    0.29309   0.30150   0.30482   0.30983   0.31721
 Alpha virt. eigenvalues --    0.32237   0.33318   0.33658   0.33882   0.34944
 Alpha virt. eigenvalues --    0.35465   0.36121   0.36525   0.36992   0.38031
 Alpha virt. eigenvalues --    0.38662   0.39957   0.40293   0.40820   0.41178
 Alpha virt. eigenvalues --    0.41631   0.42295   0.42878   0.43135   0.43368
 Alpha virt. eigenvalues --    0.44622   0.44757   0.44950   0.45671   0.46001
 Alpha virt. eigenvalues --    0.46393   0.46523   0.47076   0.47479   0.48027
 Alpha virt. eigenvalues --    0.48136   0.48604   0.48816   0.48946   0.49469
 Alpha virt. eigenvalues --    0.49645   0.49786   0.50039   0.50481   0.50688
 Alpha virt. eigenvalues --    0.51055   0.51190   0.51490   0.51737   0.52593
 Alpha virt. eigenvalues --    0.53356   0.54042   0.54119   0.54367   0.54453
 Alpha virt. eigenvalues --    0.55249   0.55694   0.56014   0.56460   0.57101
 Alpha virt. eigenvalues --    0.57321   0.57858   0.58553   0.59100   0.59362
 Alpha virt. eigenvalues --    0.60237   0.60802   0.61257   0.62132   0.62670
 Alpha virt. eigenvalues --    0.63085   0.63561   0.64008   0.64261   0.64951
 Alpha virt. eigenvalues --    0.65091   0.65506   0.65925   0.66157   0.66468
 Alpha virt. eigenvalues --    0.66829   0.67072   0.67406   0.67591   0.67900
 Alpha virt. eigenvalues --    0.68037   0.68443   0.68514   0.68876   0.69042
 Alpha virt. eigenvalues --    0.69323   0.69753   0.69954   0.70175   0.70259
 Alpha virt. eigenvalues --    0.70790   0.70957   0.71085   0.71538   0.71597
 Alpha virt. eigenvalues --    0.71823   0.72479   0.72671   0.73249   0.73603
 Alpha virt. eigenvalues --    0.73716   0.73893   0.74163   0.74646   0.74847
 Alpha virt. eigenvalues --    0.75529   0.76366   0.76607   0.77063   0.77264
 Alpha virt. eigenvalues --    0.77568   0.77876   0.78232   0.78717   0.78949
 Alpha virt. eigenvalues --    0.79666   0.80582   0.80849   0.81718   0.82400
 Alpha virt. eigenvalues --    0.83048   0.83466   0.84394   0.84926   0.85137
 Alpha virt. eigenvalues --    0.85680   0.86431   0.86901   0.87480   0.87808
 Alpha virt. eigenvalues --    0.88730   0.89095   0.89493   0.90526   0.90819
 Alpha virt. eigenvalues --    0.91350   0.92027   0.92285   0.92912   0.93022
 Alpha virt. eigenvalues --    0.93545   0.93955   0.94351   0.94785   0.95507
 Alpha virt. eigenvalues --    0.95533   0.97035   0.97782   0.98021   0.98438
 Alpha virt. eigenvalues --    0.99127   0.99642   1.00132   1.01135   1.01740
 Alpha virt. eigenvalues --    1.02212   1.02686   1.03108   1.03509   1.03952
 Alpha virt. eigenvalues --    1.04327   1.04517   1.04925   1.05306   1.05756
 Alpha virt. eigenvalues --    1.07137   1.08212   1.08671   1.09273   1.09378
 Alpha virt. eigenvalues --    1.09925   1.10405   1.10613   1.11331   1.11623
 Alpha virt. eigenvalues --    1.12201   1.12432   1.13019   1.13500   1.14258
 Alpha virt. eigenvalues --    1.14350   1.14658   1.15067   1.15862   1.16180
 Alpha virt. eigenvalues --    1.16365   1.16908   1.17449   1.17528   1.17849
 Alpha virt. eigenvalues --    1.18426   1.18782   1.19250   1.19521   1.20002
 Alpha virt. eigenvalues --    1.20632   1.20781   1.21268   1.21755   1.22044
 Alpha virt. eigenvalues --    1.22515   1.22835   1.23314   1.23487   1.24396
 Alpha virt. eigenvalues --    1.24726   1.24912   1.25414   1.25934   1.26400
 Alpha virt. eigenvalues --    1.26876   1.27595   1.27806   1.28513   1.28667
 Alpha virt. eigenvalues --    1.29254   1.29500   1.30108   1.30828   1.31357
 Alpha virt. eigenvalues --    1.31960   1.32084   1.32364   1.33042   1.33372
 Alpha virt. eigenvalues --    1.33596   1.34228   1.34500   1.35142   1.35620
 Alpha virt. eigenvalues --    1.36098   1.36643   1.37187   1.37906   1.38321
 Alpha virt. eigenvalues --    1.38824   1.39471   1.40209   1.40571   1.41077
 Alpha virt. eigenvalues --    1.41122   1.41686   1.42268   1.42858   1.43834
 Alpha virt. eigenvalues --    1.44364   1.44931   1.45284   1.45507   1.46197
 Alpha virt. eigenvalues --    1.47090   1.47303   1.47603   1.48473   1.49061
 Alpha virt. eigenvalues --    1.49310   1.49838   1.50597   1.51836   1.52060
 Alpha virt. eigenvalues --    1.52908   1.53445   1.53460   1.53812   1.54723
 Alpha virt. eigenvalues --    1.54946   1.55395   1.55739   1.56123   1.56849
 Alpha virt. eigenvalues --    1.57522   1.58107   1.58993   1.59650   1.59966
 Alpha virt. eigenvalues --    1.60238   1.61512   1.61667   1.61845   1.62943
 Alpha virt. eigenvalues --    1.63276   1.64041   1.64557   1.65250   1.65693
 Alpha virt. eigenvalues --    1.65921   1.66167   1.66723   1.67379   1.68167
 Alpha virt. eigenvalues --    1.68686   1.69570   1.69939   1.70022   1.70512
 Alpha virt. eigenvalues --    1.70640   1.71667   1.72010   1.72375   1.73122
 Alpha virt. eigenvalues --    1.73462   1.73699   1.74323   1.74580   1.74646
 Alpha virt. eigenvalues --    1.75696   1.75881   1.76098   1.76818   1.77020
 Alpha virt. eigenvalues --    1.77458   1.77985   1.78587   1.79126   1.79522
 Alpha virt. eigenvalues --    1.79945   1.80172   1.80862   1.81518   1.82538
 Alpha virt. eigenvalues --    1.82986   1.83356   1.84036   1.84179   1.84956
 Alpha virt. eigenvalues --    1.85482   1.85918   1.86377   1.86817   1.86859
 Alpha virt. eigenvalues --    1.87158   1.87675   1.87736   1.88756   1.89170
 Alpha virt. eigenvalues --    1.90261   1.90937   1.91429   1.91568   1.92043
 Alpha virt. eigenvalues --    1.92404   1.92621   1.93049   1.93248   1.93450
 Alpha virt. eigenvalues --    1.94072   1.94792   1.95525   1.95963   1.96698
 Alpha virt. eigenvalues --    1.97157   1.97345   1.97650   1.98141   1.98857
 Alpha virt. eigenvalues --    1.99574   1.99960   2.00107   2.00632   2.01347
 Alpha virt. eigenvalues --    2.01445   2.02394   2.03072   2.03469   2.03783
 Alpha virt. eigenvalues --    2.04608   2.05398   2.05620   2.06750   2.07891
 Alpha virt. eigenvalues --    2.08283   2.08568   2.09408   2.09744   2.11302
 Alpha virt. eigenvalues --    2.12040   2.13234   2.13799   2.14305   2.15407
 Alpha virt. eigenvalues --    2.15748   2.16101   2.17133   2.17911   2.18396
 Alpha virt. eigenvalues --    2.18986   2.20768   2.21242   2.21946   2.22098
 Alpha virt. eigenvalues --    2.22598   2.23290   2.23504   2.23862   2.24702
 Alpha virt. eigenvalues --    2.25023   2.25098   2.25685   2.26803   2.28193
 Alpha virt. eigenvalues --    2.28839   2.30488   2.30812   2.31948   2.32012
 Alpha virt. eigenvalues --    2.33985   2.34474   2.34709   2.35803   2.36653
 Alpha virt. eigenvalues --    2.38470   2.39439   2.39650   2.41578   2.43600
 Alpha virt. eigenvalues --    2.44420   2.46497   2.47486   2.49044   2.52200
 Alpha virt. eigenvalues --    2.54879   2.55625   2.56095   2.57161   2.57540
 Alpha virt. eigenvalues --    2.58248   2.58921   2.59453   2.60244   2.60438
 Alpha virt. eigenvalues --    2.60900   2.61470   2.61773   2.62067   2.62528
 Alpha virt. eigenvalues --    2.62969   2.63021   2.63385   2.64251   2.64676
 Alpha virt. eigenvalues --    2.65535   2.65725   2.65934   2.66927   2.67251
 Alpha virt. eigenvalues --    2.67835   2.68950   2.69590   2.69962   2.70246
 Alpha virt. eigenvalues --    2.71450   2.72088   2.72409   2.72791   2.73450
 Alpha virt. eigenvalues --    2.74096   2.74316   2.75806   2.77466   2.78106
 Alpha virt. eigenvalues --    2.78939   2.79083   2.79246   2.79538   2.79899
 Alpha virt. eigenvalues --    2.80366   2.80769   2.81160   2.81558   2.82537
 Alpha virt. eigenvalues --    2.82869   2.83145   2.83343   2.84011   2.84880
 Alpha virt. eigenvalues --    2.85690   2.86019   2.87081   2.87277   2.88547
 Alpha virt. eigenvalues --    2.89703   2.90677   2.90867   2.92522   2.92782
 Alpha virt. eigenvalues --    2.93460   2.94200   2.94857   2.95579   2.95845
 Alpha virt. eigenvalues --    2.96285   2.96464   2.97342   2.97664   2.98435
 Alpha virt. eigenvalues --    2.98613   2.98804   2.98922   2.99168   2.99968
 Alpha virt. eigenvalues --    3.00259   3.00521   3.01228   3.02202   3.02862
 Alpha virt. eigenvalues --    3.03137   3.03245   3.03280   3.03290   3.03352
 Alpha virt. eigenvalues --    3.03460   3.03556   3.03745   3.03833   3.03908
 Alpha virt. eigenvalues --    3.04077   3.04216   3.04602   3.04975   3.05423
 Alpha virt. eigenvalues --    3.05761   3.05983   3.06405   3.07328   3.07862
 Alpha virt. eigenvalues --    3.08944   3.11668   3.13005   3.13572   3.14996
 Alpha virt. eigenvalues --    3.15576   3.16051   3.16118   3.16425   3.16786
 Alpha virt. eigenvalues --    3.17013   3.20787   3.21104   3.22149   3.22684
 Alpha virt. eigenvalues --    3.23937   3.32651   3.34545   3.35351   3.35975
 Alpha virt. eigenvalues --    3.37731   3.37933   3.38489   3.38687   3.38801
 Alpha virt. eigenvalues --    3.39192   3.39902   3.40586   3.41246   3.45739
 Alpha virt. eigenvalues --    3.51153   3.51735   3.52448   3.52799   3.53239
 Alpha virt. eigenvalues --    3.53492   3.53862   3.54288   3.54689   3.56324
 Alpha virt. eigenvalues --    3.61324   3.67647   3.67930   3.68464   3.70052
 Alpha virt. eigenvalues --    3.80939   3.81441   3.82808   3.83308   3.83596
 Alpha virt. eigenvalues --    3.84205
          Condensed to atoms (all electrons):
 Mulliken charges:
               1
     1  C   -0.184214
     2  C    0.210005
     3  C    0.247035
     4  O   -0.322736
     5  O   -0.294641
     6  O   -0.271498
     7  O   -0.279636
     8  C    0.178750
     9  C    0.162229
    10  H    0.045602
    11  H    0.041673
    12  H    0.047015
    13  H    0.058440
    14  H    0.063151
    15  H    0.053565
    16  O   -0.438077
    17  O   -0.437142
    18  O   -0.424967
    19  S    0.886172
    20  S    0.868177
    21  S    0.861828
    22  O   -0.443285
    23  O   -0.406508
    24  O   -0.425591
    25  O   -0.397849
    26  O   -0.440827
    27  O   -0.420275
    28  C    0.436155
    29  C    0.440494
    30  C    0.422613
    31  F   -0.122036
    32  F   -0.115668
    33  F   -0.128732
    34  F   -0.104276
    35  F   -0.123377
    36  F   -0.123789
    37  F   -0.122366
    38  F   -0.116825
    39  F   -0.122013
    40  C    0.062728
    41  C   -0.071575
    42  C   -0.178365
    43  C   -0.203705
    44  C    0.082691
    45  C    0.069023
    46  C    0.077083
    47  H    0.089898
    48  H    0.092642
    49  H    0.067822
    50  N    0.151533
    51  N    0.147463
    52  N   -0.097430
    53  N    0.013974
    54  C    0.210773
    55  H    0.100327
    56  C    0.199087
    57  H    0.043380
    58  H    0.023095
    59  Sc   0.258686
    60  H    0.083652
    61  C    0.069355
    62  C   -0.054769
    63  C   -0.028397
    64  C    0.006709
    65  H    0.012149
    66  C    0.002507
    67  H   -0.015759
    68  C    0.004225
    69  H    0.009453
    70  H    0.005318
    71  H    0.009852
 Sum of Mulliken charges =  -0.00000
 Mulliken charges with hydrogens summed into heavy atoms:
               1
     1  C   -0.184214
     2  C    0.210005
     3  C    0.247035
     4  O   -0.322736
     5  O   -0.294641
     6  O   -0.271498
     7  O   -0.279636
     8  C    0.313040
     9  C    0.337386
    16  O   -0.438077
    17  O   -0.437142
    18  O   -0.424967
    19  S    0.886172
    20  S    0.868177
    21  S    0.861828
    22  O   -0.443285
    23  O   -0.406508
    24  O   -0.425591
    25  O   -0.397849
    26  O   -0.440827
    27  O   -0.420275
    28  C    0.436155
    29  C    0.440494
    30  C    0.422613
    31  F   -0.122036
    32  F   -0.115668
    33  F   -0.128732
    34  F   -0.104276
    35  F   -0.123377
    36  F   -0.123789
    37  F   -0.122366
    38  F   -0.116825
    39  F   -0.122013
    40  C    0.146380
    41  C   -0.071575
    42  C   -0.178365
    43  C   -0.203705
    44  C    0.172589
    45  C    0.161665
    46  C    0.144904
    50  N    0.151533
    51  N    0.147463
    52  N   -0.097430
    53  N    0.013974
    54  C    0.311100
    56  C    0.265562
    59  Sc   0.258686
    61  C    0.069355
    62  C   -0.042620
    63  C   -0.044156
    64  C    0.016161
    66  C    0.007825
    68  C    0.014077
 APT charges:
               1
     1  C   -1.159301
     2  C    1.847011
     3  C    2.048980
     4  O   -1.397073
     5  O   -1.373850
     6  O   -1.190140
     7  O   -1.286183
     8  C    0.539880
     9  C    0.653351
    10  H    0.037772
    11  H   -0.003201
    12  H    0.019313
    13  H    0.010519
    14  H   -0.009113
    15  H   -0.017181
    16  O   -1.219406
    17  O   -1.216041
    18  O   -1.133677
    19  S    2.494246
    20  S    2.557633
    21  S    2.503536
    22  O   -1.205619
    23  O   -0.989662
    24  O   -1.205587
    25  O   -0.988900
    26  O   -1.205562
    27  O   -1.021562
    28  C    1.917085
    29  C    1.857984
    30  C    1.844375
    31  F   -0.646375
    32  F   -0.665771
    33  F   -0.701622
    34  F   -0.641268
    35  F   -0.665940
    36  F   -0.665213
    37  F   -0.668250
    38  F   -0.640232
    39  F   -0.681708
    40  C    0.062559
    41  C    0.774079
    42  C    0.101762
    43  C    0.062583
    44  C   -0.146023
    45  C    0.158382
    46  C    0.156763
    47  H    0.181329
    48  H    0.121025
    49  H    0.170286
    50  N   -0.317940
    51  N   -0.292556
    52  N   -0.318280
    53  N   -0.325522
    54  C    0.462353
    55  H    0.152004
    56  C    0.201784
    57  H   -0.004648
    58  H    0.041873
    59  Sc   2.969007
    60  H   -0.001490
    61  C    0.078890
    62  C   -0.094421
    63  C   -0.131292
    64  C   -0.032824
    65  H    0.058181
    66  C   -0.018463
    67  H    0.117933
    68  C   -0.057588
    69  H    0.044985
    70  H    0.044203
    71  H    0.047820
 Sum of APT charges =   0.00000
 APT charges with hydrogens summed into heavy atoms:
               1
     1  C   -1.159301
     2  C    1.847011
     3  C    2.048980
     4  O   -1.397073
     5  O   -1.373850
     6  O   -1.190140
     7  O   -1.286183
     8  C    0.593764
     9  C    0.637575
    16  O   -1.219406
    17  O   -1.216041
    18  O   -1.133677
    19  S    2.494246
    20  S    2.557633
    21  S    2.503536
    22  O   -1.205619
    23  O   -0.989662
    24  O   -1.205587
    25  O   -0.988900
    26  O   -1.205562
    27  O   -1.021562
    28  C    1.917085
    29  C    1.857984
    30  C    1.844375
    31  F   -0.646375
    32  F   -0.665771
    33  F   -0.701622
    34  F   -0.641268
    35  F   -0.665940
    36  F   -0.665213
    37  F   -0.668250
    38  F   -0.640232
    39  F   -0.681708
    40  C    0.061068
    41  C    0.774079
    42  C    0.101762
    43  C    0.062583
    44  C    0.035306
    45  C    0.279406
    46  C    0.327050
    50  N   -0.317940
    51  N   -0.292556
    52  N   -0.318280
    53  N   -0.325522
    54  C    0.614358
    56  C    0.239010
    59  Sc   2.969007
    61  C    0.078890
    62  C   -0.036241
    63  C   -0.013359
    64  C    0.012161
    66  C    0.025740
    68  C   -0.009768
 Electronic spatial extent (au):  <R**2>=          31557.2751
 Charge=             -0.0000 electrons
 Dipole moment (field-independent basis, Debye):
    X=            -15.5580    Y=             -9.1479    Z=             -1.2169  Tot=             18.0891
[...]
 0061,0.00000533,0.00000935,0.00000388,0.00000201,0.00000375,0.00000436
 ,-0.00000027,0.00000505,-0.00000028,0.00000085,-0.00000099,-0.00000173
 ,0.00000054,-0.00000048,-0.00000099,-0.00000012,-0.00000113,-0.0000025
 6,-0.00000048,-0.00000239,-0.00000113,0.00000145,0.00000049,0.00000263
 ,-0.00000135,-0.00000890,0.00000086,0.00000096,0.00001774,0.00000175,0
 .00000146,0.00000530,0.00000277,-0.00000253,-0.00000215,-0.00000093,-0
 .00000079,-0.00000454,-0.00000189,-0.00000274,-0.00000600,-0.00000136,
 -0.00000117,-0.00000279,-0.00000051,0.00000006,-0.00000253,-0.00000302
 ,0.00000109,0.00000120,-0.00000088,0.00000084,0.00000066,0.00000167,-0
 .00000190,0.00000142,0.00000068,-0.00000035,0.00000232,0.00001100,-0.0
 0000704,0.00002054,-0.00000057,0.00000110,-0.00000091,-0.00000069,0.00
 000035,-0.00000027,-0.00000057,0.00000074,0.00000017,-0.00000045,0.000
 00032,-0.00000149,-0.00000007,0.00000015,-0.00000044,-0.00000031,-0.00
 000041,-0.00000064,-0.00000501,0.00000107,-0.00000660,-0.00000309,0.00
 000074,-0.00000886,-0.00000427,0.00000405,-0.00000518,-0.00015589,0.00
 075904,0.00045183,-0.00009649,0.00016514,-0.00025866,-0.00001843,-0.00
 003644,0.00000254,0.00001806,0.00007676,0.00007421,0.00000353,-0.00000
 332,-0.00000409,-0.00002501,0.00000853,0.00000246,0.00001000,0.0000020
 5,0.00001233,-0.00000013,-0.00000013,0.00000162,-0.00000290,0.00000010
 ,0.00000032,0.00000065,-0.00000038,-0.00000042,0.00002400,0.00001686,-
 0.00000014,-0.00000602,-0.00001203,-0.00005255,0.00002951,-0.00001846,
 -0.00001963,0.00000104,-0.00003126,-0.00001236,0.00000391,0.00000502,0
 .00001723,0.00000493,-0.00000209,0.00000267,0.00008750,0.00002216,0.00
 002112,0.00000786,-0.00003780,0.00001981,-0.00001189,-0.00000689,-0.00
 000730,0.00001181,0.00000305,0.00000328,0.00006834,-0.00004427,-0.0000
 0432,-0.00367701,0.00189500,-0.00148368,-0.00501129,0.02047546,0.00809
 508,-0.00009891,0.00030813,-0.00102037,0.00961600,-0.06973846,-0.07203
 375,0.00177069,-0.00006106,0.00055379,-0.00329334,-0.00182883,-0.00373
 734,0.00033915,0.00006290,0.00000018,0.00560940,-0.02632786,-0.0010802
 0,-0.00694583,0.07452182,0.06969978,0.00000390,-0.00001380,0.00004022,
 -0.00002264,0.00001788,-0.00010295,0.00001056,-0.00001032,-0.00000108,
 -0.00002684,0.00000225,0.00001330,-0.00001733,-0.00000204,0.00004968,0
 .00004108,-0.00000224,0.00010966,-0.00000976,0.00000250,0.00000370,-0.
 00000435,-0.00004257,-0.00016536,0.00000306,-0.00000136,0.00000392,0.0
 0001951,0.00004378,-0.00000361,0.00002307,0.00000044,0.00002668,0.0000
 0526,-0.00000220,0.00001931,0.00000006,0.00000006,-0.00000008,-0.00000
 075,-0.00000012,-0.00000038,-0.00000059,0.00000058,-0.00000033,0.00000
 192,0.00000036,0.00000469,0.00000257,-0.00000133,0.00001025,-0.0000025
 9,-0.00000545,0.00001208,-0.00000502,0.00000183,-0.00002349,-0.0000017
 7,-0.00000024,-0.00000763,-0.00001241,0.00000461,-0.00003296,0.0000011
 9,-0.00000163,0.00000874,0.00000398,0.00000332,0.00000705,0.00000086,-
 0.00000026,0.00000360,0.00000110,-0.00000062,0.00000370,-0.00000314,-0
 .00000022,0.00001357,0.00001193,-0.00000179,0.00001445,-0.00000664,0.0
 0000515,-0.00000516,-0.00000282,0.00000079,-0.00000565,-0.00000937,-0.
 00001418,-0.00003722,0.00000241,-0.00000456,0.00000428,0.00000364,-0.0
 0000021,0.00000128,0.00000124,-0.00000036,0.00000195,0.00000136,-0.000
 00068,0.00000356,0.00000068,-0.00000051,0.00000099,0.00000104,0.000000
 73,0.00000141,0.00000619,0.00000308,0.00000987,0.00000658,0.00000734,0
 .00002191,0.00000193,0.00000491,0.00000568,0.00008436,-0.00019205,-0.0
 0050081,-0.00001487,-0.00009420,-0.00000648,-0.00003464,-0.00006465,0.
 00002453,-0.00000655,-0.00000467,0.00002945,-0.00000063,-0.00000135,-0
 .00000165,-0.00001591,-0.00000537,-0.00004053,0.00000346,-0.00000385,0
 .00001794,0.,0.00000050,0.00000148,-0.00000665,0.00001863,0.00000007,-
 0.00000251,0.00000239,-0.00000352,0.00000829,-0.00000740,0.00004183,-0
 .00000222,0.00000765,-0.00002423,-0.00000312,0.00004010,0.00005563,-0.
 00002088,0.00007408,-0.00003999,0.00000743,-0.00000365,0.00001698,0.00
 000286,-0.00000273,0.00000065,0.00016088,0.00007543,-0.00002628,0.0000
 0650,-0.00003671,0.00001571,-0.00002632,-0.00004447,-0.00000199,0.0000
 0147,0.00000464,-0.00002769,-0.00007482,0.00015491,-0.00012371,0.00472
 794,0.00302935,-0.00314318,-0.00090141,0.00029046,0.00036215,0.0020894
 5,-0.00450382,-0.01113422,0.00581944,0.00266738,-0.00132091,-0.0007305
 2,-0.00026337,0.00024840,-0.05748904,-0.01991174,-0.06400702,-0.003372
 98,-0.00157877,0.00170756,0.00614170,0.00312128,0.00530069,0.00010301,
 0.00011539,0.00024259,0.04703438,-0.00001035,0.00000631,0.00001363,-0.
 00001014,-0.00000680,0.00000994,-0.00000571,0.00000453,-0.00000540,0.0
 0001289,-0.00000459,-0.00000075,0.00000916,-0.00000222,-0.00000395,-0.
 00003035,0.00000047,-0.00004135,0.00001082,-0.00000429,0.00000838,0.00
 002839,-0.00002960,0.00002242,-0.00000258,0.00000135,-0.00000532,-0.00
 004071,0.00003883,-0.00003135,0.00000924,-0.00000228,0.00000583,-0.000
 01406,-0.00000163,-0.00001018,0.00000012,-0.00000013,0.00000053,0.0000
 0103,-0.00000035,0.00000054,0.00000111,-0.00000025,0.00000066,-0.00000
 006,-0.00000165,-0.00000011,-0.00000108,-0.00000653,-0.00000133,-0.000
 00076,-0.00000111,0.00000333,-0.00000037,0.00000150,-0.00000688,-0.000
 00015,0.00000268,-0.00000103,0.00000725,0.00001117,0.00000322,0.000000
 43,-0.00000135,0.00000221,0.00000061,0.00000048,0.00000229,0.00000086,
 -0.00000089,0.00000082,0.,-0.00000081,0.00000080,-0.00000284,-0.000004
 73,-0.00000062,-0.00000467,-0.00000413,-0.00000214,0.00000291,0.000002
 54,-0.00000080,0.00000006,0.00000157,-0.00000136,0.00000134,-0.0000002
 4,-0.00001826,-0.00000045,-0.00000076,0.00000049,-0.00000219,-0.000001
 44,-0.00000001,-0.00000053,-0.00000081,-0.00000017,0.00000008,-0.00000
 055,0.00000094,0.00000015,-0.00000054,0.00000019,-0.00000031,-0.000000
 59,0.00000022,-0.00000148,-0.00000028,0.00000475,0.00000114,0.00000082
 ,0.00000927,0.00000022,-0.00000015,0.00000319,0.00012260,0.00046524,0.
 00049181,-0.00001623,0.00003857,0.00000532,0.00001788,0.00000107,0.000
 01199,0.00000869,-0.00000741,-0.00001024,0.00000529,-0.00000171,-0.000
 01482,0.00001124,-0.00000043,0.00000989,0.00000456,-0.00000562,-0.0000
 0114,0.00000153,0.00000003,-0.00000131,0.00001345,-0.00000790,0.000000
 19,0.00000074,0.00000061,0.00000019,-0.00000777,0.00000165,-0.00001235
 ,-0.00000174,-0.00000008,0.00001121,-0.00001711,0.00000323,0.00001272,
 -0.00000460,0.00002041,-0.00002819,-0.00001678,0.00001373,-0.00001119,
 -0.00000319,0.00000095,0.00000017,0.00000848,-0.00007105,0.00013731,0.
 00000818,-0.00000676,-0.00000158,0.00005358,0.00000533,0.00001043,-0.0
 0000557,0.00000486,0.00000244,0.00000588,-0.00003467,0.00008704,0.0031
 3027,-0.00116894,0.00215878,0.00017016,-0.00081638,0.00051151,0.005115
 36,0.00921452,0.01800912,0.00291176,-0.00439317,-0.00097792,-0.0002534
 1,0.00002745,0.00001465,-0.02012628,-0.09400817,-0.09920619,-0.0014765
 3,0.00066418,-0.00000331,-0.00664217,-0.00477201,-0.02651994,-0.000309
 17,-0.00032533,-0.00119551,0.01860187,0.09399065,-0.00002702,-0.000010
 19,-0.00005936,0.00011617,0.00001636,0.00000864,0.00008666,-0.00003842
 ,0.00008085,-0.00009448,0.00001770,0.00001335,-0.00011195,-0.00000401,
 0.00002733,-0.00008931,0.00001038,0.00007396,-0.00003215,0.00002035,-0
 .00006381,-0.00002474,0.00000582,-0.00008208,0.00002096,-0.00000889,0.
 00002824,-0.00008964,0.00000157,-0.00006480,-0.00001333,0.00000096,0.0
 0000673,-0.00000267,-0.00000283,0.00000902,-0.00000062,0.00000046,-0.0
 0000319,-0.00000430,0.00000084,-0.00000297,-0.00000471,0.00000230,-0.0
 0000288,-0.00001640,0.00000222,-0.00000429,-0.00000912,0.00001075,0.00
 001476,-0.00001534,-0.00001567,0.00000677,0.00002603,0.00002363,-0.000
 00994,0.00002377,-0.00000466,0.00000884,0.00001467,-0.00001524,-0.0000
 3322,-0.00001128,-0.00000774,0.00000672,-0.00000956,-0.00001112,-0.000
 00048,-0.00001776,0.00000130,-0.00000527,-0.00000616,0.00000188,-0.000
 00416,-0.00001702,0.00001183,0.00001795,-0.00000091,0.00000503,0.00001
 174,0.00001077,-0.00000857,-0.00000240,0.00000987,0.00000152,-0.000004
 57,0.00002681,0.00001800,-0.00002348,-0.00000259,0.00000326,-0.0000005
 9,-0.00000442,0.00000088,0.00000058,-0.00000432,0.00000520,0.00000506,
 -0.00000274,-0.00000057,0.00000127,-0.00000498,0.00000208,0.00000206,-
 0.00000361,-0.00000246,0.00000034,-0.00002080,-0.00001092,0.00000769,-
 0.00000425,-0.00000079,0.00001168,-0.00000310,-0.00000841,0.00000376,0
 .00000412,-0.00070519,-0.00022175,0.00000018,-0.00006781,-0.00005045,-
 0.00002741,-0.00006035,0.00003514,-0.00000911,0.00000809,0.00005267,0.
 00000191,-0.00000020,0.00000257,-0.00003300,-0.00000849,-0.00003534,0.
 00000502,-0.00000502,0.00001768,0.00000130,-0.00000120,0.00000312,-0.0
 0000594,0.00000643,0.00000286,-0.00000087,0.00000017,-0.00000339,0.000
 02772,0.00004160,-0.00001722,-0.00000065,0.00000965,-0.00003863,0.0000
 3293,0.00000689,0.00003847,-0.00002454,0.00006432,-0.00002661,0.000005
 03,-0.00002614,0.00001707,0.00000577,-0.00000591,0.00000357,0.00003270
 ,0.00016498,-0.00019250,0.00000445,0.00001731,0.00002124,-0.00008751,-
 0.00000996,-0.00001895,0.00008095,0.00000507,-0.00001770,-0.00003903,0
 .00006807,-0.00014422,-0.00326356,0.00232949,-0.00018285,0.00034913,0.
 00058022,0.00043136,-0.00333980,-0.00936092,-0.01239945,-0.00141445,-0
 .00160992,0.00191114,0.00025282,0.00003728,-0.00017841,-0.06380926,-0.
 09906887,-0.29700898,0.00173732,0.00014116,0.00038935,-0.00255134,0.00
 140438,-0.00103659,-0.00010230,0.00004719,-0.00016893,0.07099387,0.105
 62593,0.30881692,0.00000383,-0.00001253,0.00002370,0.00003172,0.000019
 72,-0.00003730,0.00002851,-0.00000900,0.00001005,-0.00002837,0.0000017
 5,0.00001061,-0.00004160,-0.00001005,0.00002004,0.00000428,0.00001590,
 0.00004705,-0.00000872,0.00000390,-0.00000907,0.00000348,0.00000036,-0
 .00004164,0.00000489,-0.00000150,0.00000580,0.00000207,0.00001350,-0.0
 0000479,-0.00000083,-0.00000371,0.00000665,-0.00001542,-0.00000254,0.0
 0000026,0.,0.00000021,-0.00000049,-0.00000117,-0.00000004,-0.00000059,
 -0.00000085,0.00000058,-0.00000063,-0.00000296,-0.00000193,0.00000053,
 -0.00000252,-0.00000505,0.00000589,-0.00000201,-0.00001654,0.00001265,
 -0.00001106,0.00002273,-0.00002347,0.00000291,0.00000467,-0.00000251,0
 .00000546,0.00000879,-0.00001741,0.00000465,-0.00001446,0.00000606,0.0
 0000558,-0.00000267,0.00000757,-0.00000144,-0.00000291,0.00000153,-0.0
 0000028,-0.00000144,0.00000183,-0.00000762,-0.00000135,0.00000868,0.00
 000037,-0.00000301,0.00000633,0.00000156,0.00000287,-0.00000322,-0.000
 00014,0.00000349,-0.00000484,-0.00002976,0.00001399,-0.00003459,0.0000
 0022,-0.00000209,0.00000219,-0.00000134,-0.00000135,0.00000059,-0.0000
 0068,0.00000014,0.00000160,0.00000055,-0.00000136,0.00000304,0.0000001
 1,-0.00000099,0.00000084,-0.00000047,-0.00000123,0.00000088,0.00001158
 ,-0.00000432,0.00001110,0.00000861,-0.00000169,0.00001628,0.00000944,-
 0.00000886,0.00000775,-0.00080165,-0.00009225,0.00017617,-0.00000044,-
 0.00008687,-0.00002230,0.00001160,-0.00005139,0.00006132,-0.00001483,-
 0.00000037,0.00000647,0.00000160,0.00000153,-0.00000051,-0.00000249,-0
 .00000133,-0.00001376,0.00000162,-0.00000022,0.00000510,0.00000068,-0.
 00000029,0.00000081,0.00000094,0.00000284,0.00000061,-0.00000057,-0.00
 000022,-0.00000160,0.00002276,0.00005304,-0.00003098,0.00000013,-0.000
 00062,-0.00000366,0.00000064,0.00002878,0.00004691,-0.00003858,0.00001
 759,-0.00003945,0.00000507,-0.00000054,0.00000901,0.00000324,-0.000002
 82,0.00000045,0.00008124,0.00004208,-0.00010902,0.00000628,-0.00002946
 ,-0.00000326,-0.00002846,-0.00002756,-0.00000945,0.00002077,0.00001755
 ,-0.00001283,0.00000095,0.00010114,0.00012486,-0.00058272,-0.00049026,
 0.00042580,0.00589128,0.00064768,-0.00264023,0.00599199,0.00243774,-0.
 00142705,0.00219347,0.00496453,-0.00311937,-0.00007950,0.00022217,-0.0
 0011859,0.00261234,0.00175883,-0.00465577,-0.00003253,0.00005871,-0.00
 015901,-0.09503499,0.07870913,-0.08939362,-0.00338778,-0.00119516,0.00
 154223,-0.00351717,-0.00126995,0.00148711,0.08670256,0.00002384,0.0000
 0893,0.00004255,-0.00007965,0.00000062,-0.00005955,-0.00004639,0.00001
 832,-0.00004683,0.00003874,-0.00000676,-0.00000431,0.00006404,0.000001
 05,-0.00000011,0.00009942,0.00001082,0.00000425,0.00000811,-0.00000805
 ,0.00003422,-0.00001674,-0.00001374,0.00004642,-0.00000937,0.00000368,
 -0.00001169,-0.00002308,-0.00000047,0.00002598,0.00000610,-0.00000128,
 -0.00000041,0.00000713,0.00000363,0.00000064,0.00000036,-0.00000030,0.
 00000159,0.00000179,-0.00000032,0.00000132,0.00000178,-0.00000093,0.00
 000125,0.00000920,-0.00000042,0.00000278,0.00000603,-0.00000275,-0.000
 00829,0.00000774,0.00000821,-0.00000264,-0.00001373,-0.00001134,0.0000
 0448,-0.00001271,0.00000128,-0.00000502,-0.00001354,0.00000339,0.00002
 096,0.00000609,0.00000414,-0.00000365,0.00000512,0.00000526,0.00000032
 ,0.00000920,-0.00000029,0.00000301,0.00000332,-0.00000071,0.00000224,0
 .00001365,-0.00000351,-0.00001148,0.00000299,-0.00000107,-0.00000713,-
 0.00000786,0.00000441,0.00000209,-0.00000536,-0.00000106,0.00000296,-0
 .00001612,-0.00000530,0.00001495,0.00000175,-0.00000163,0.00000004,0.0
 0000361,0.00000002,-0.00000037,0.00000296,-0.00000308,-0.00000336,0.00
 000149,0.00000047,-0.00000098,0.00000265,-0.00000102,-0.00000117,0.000
 00204,0.00000142,-0.00000026,0.00001049,0.00000520,-0.00000376,0.00000
 269,0.,-0.00000807,0.00000275,0.00000185,-0.00000221,-0.00024491,0.000
 08698,0.00007090,-0.00002318,0.00002853,-0.00007858,-0.00000107,0.0000
 3571,-0.00003915,-0.00000266,0.00000028,-0.00001909,-0.00001032,0.0000
 0321,0.00002549,0.00002720,0.00001671,0.00004599,-0.00000620,0.0000184
 8,-0.00002471,-0.00000317,-0.00000012,-0.00000123,-0.00000319,-0.00000
 823,0.00000078,0.00000235,-0.00000181,0.00000422,-0.00000459,-0.000025
 25,0.00003078,0.00000103,-0.00000498,0.00001670,-0.00001954,0.00001764
 ,-0.00008506,0.00005541,-0.00018544,0.00004856,0.00002373,-0.00000042,
 -0.00000883,0.00000114,0.00000310,-0.00000293,-0.00001111,-0.00001907,
 0.00000360,0.00001325,-0.00000752,-0.00000574,0.00001107,-0.00000242,0
 .00000294,-0.00004304,-0.00000523,0.00000465,0.00000271,0.00001457,0.0
 0008363,-0.00038064,-0.00046925,-0.00071323,0.00092448,0.00052773,-0.0
 0274075,0.00212523,-0.00376404,-0.00276821,-0.00505126,0.00990245,-0.0
 0984728,-0.00021751,0.00032424,-0.00042464,0.01193558,-0.01075367,0.02
 067150,0.00048074,-0.00048681,0.00095982,0.07856143,-0.16267508,0.1203
 7448,-0.00094937,0.00027512,0.00104640,-0.00147813,0.00117360,0.000357
 92,-0.08581598,0.16596233,-0.00001989,0.00002060,-0.00003154,0.0000479
 3,-0.00000260,0.00000261,0.00004310,-0.00001458,0.00004558,-0.00004690
 ,0.00000556,0.00000507,-0.00004806,-0.00000090,0.00000883,-0.00003540,
 0.00000023,0.00000744,-0.00001084,0.00000828,-0.00003191,0.00000737,0.
 00000738,-0.00001077,0.00001052,-0.00000399,0.00001289,0.00000617,-0.0
 0001063,-0.00000899,-0.00000553,0.00000043,0.00000077,-0.00000188,-0.0
 0000031,0.00000052,-0.00000024,0.00000021,-0.00000150,-0.00000184,0.00
 000031,-0.00000127,-0.00000212,0.00000110,-0.00000129,-0.00000921,-0.0
 0000002,-0.00000339,-0.00000537,0.00000353,0.00000460,-0.00000869,-0.0
 0000981,0.00000421,0.00001386,0.00001850,-0.00000436,0.00001289,-0.000
 00031,0.00000614,0.00001133,-0.00000505,-0.00000812,-0.00000494,-0.000
 00676,0.00000240,-0.00000522,-0.00000850,-0.00000072,-0.00000921,-0.00
 000027,-0.00000317,-0.00000347,0.00000053,-0.00000273,-0.00000823,0.00
 000479,0.00000581,-0.00000385,0.00000160,0.00000184,0.00000761,-0.0000
 0400,0.00000009,0.00000577,0.00000210,-0.00000131,0.00001269,0.0000245
 8,-0.00001088,-0.00000189,0.00000222,-0.00000108,-0.00000370,-0.000000
 13,-0.00000008,-0.00000248,0.00000214,0.00000173,-0.00000168,-0.000000
 53,0.00000017,-0.00000250,0.00000069,0.00000082,-0.00000239,-0.0000021
 0,-0.00000020,-0.00001106,-0.00000932,0.00000442,-0.00000251,-0.000003
 56,0.00000327,0.00000072,-0.00001224,0.00000251,0.00028099,0.00004956,
 0.00000334,-0.00002992,0.00004868,-0.00004871,-0.00000843,0.00000684,-
 0.00002585,0.00000489,0.00001373,0.00002491,0.00000012,-0.00000030,0.0
 0000346,-0.00000836,0.00000056,0.00000407,0.00000356,-0.00000010,0.000
 00009,0.00000065,-0.00000099,0.00000107,-0.00000013,-0.00000207,-0.000
 00027,0.00000112,-0.00000032,-0.00000029,-0.00000519,-0.00001029,0.000
 00864,-0.00000126,0.00000274,-0.00001830,0.00000553,0.00000570,-0.0000
 1315,0.00000994,-0.00001334,-0.00000154,0.00000172,-0.00001019,0.00000
 296,0.00000200,-0.00000181,0.00000188,-0.00002008,0.00000861,0.0000128
 4,0.00003208,0.00003942,0.00002709,-0.00000238,0.00001560,-0.00000189,
 0.00004069,0.00000567,-0.00000509,-0.00000327,-0.00004773,-0.00002791,
 0.00045863,-0.00065336,-0.00023884,-0.00257410,-0.00327433,-0.00285949
 ,-0.00144107,-0.00226597,0.00142206,-0.01113745,0.01788426,-0.01188806
 ,-0.00045834,0.00079477,-0.00070250,0.00332784,-0.00708751,0.00837957,
 0.00015471,-0.00028117,0.00022161,-0.08942704,0.12037164,-0.19265970,0
 .00170386,0.00049182,0.00092454,0.00133307,0.00092037,0.00001897,0.097
 83469,-0.12701968,0.19743611\\-0.00000087,0.00000187,-0.00001026,-0.00
 000429,0.00000330,0.00000551,-0.00000004,0.00001017,-0.00000490,0.0000
 0771,-0.00000774,0.00001939,0.00000306,0.00000810,-0.00000670,0.000009
 08,-0.00000532,0.00000081,0.00001615,-0.00000636,-0.00000276,0.0000048
 4,0.00000145,-0.00000801,-0.00000154,-0.00000350,0.00000315,0.00000132
 ,-0.00000034,-0.00000216,0.00000093,0.00000065,0.00000250,-0.00000066,
 0.00000288,0.00000235,-0.00000382,-0.00000202,0.00000022,-0.00000435,0
 .00000162,0.00000243,-0.00000106,0.00000093,0.00000017,-0.00000491,0.0
 0000198,0.00000487,0.00000927,0.00000963,0.00000280,0.00000224,0.00000
 066,0.00000755,-0.00000435,0.00000238,0.00000082,0.00000168,0.00001658
 ,0.00000175,0.00000268,-0.00000205,-0.00000156,-0.00000749,0.00000724,
 0.00000024,-0.00000566,0.00000433,0.00000688,-0.00000156,0.00000482,0.
 00000329,-0.00000597,0.00000562,0.00000619,0.00000648,0.00000216,0.000
 00405,0.00001108,0.00000935,0.00000496,0.00000353,0.00001308,0.0000042
 0,0.00000012,0.00000993,0.00000862,-0.00000418,0.00000459,0.00000093,0
 .00000602,0.00000467,0.00000546,0.00000452,0.00000937,0.00000422,0.000
 00774,0.00000720,0.00000100,-0.00000074,0.00000871,0.00000691,0.000000
 45,0.00001120,0.00000586,-0.00000411,0.00000942,0.00000806,-0.00000921
 ,-0.00000395,0.00000341,-0.00000340,0.00000165,0.00000440,-0.00000535,
 0.00000133,0.00000215,-0.00000248,-0.00000380,-0.00000560,-0.00000098,
 -0.00000092,0.00000038,0.00000710,-0.00000047,-0.00000635,-0.00001413,
 -0.00002187,-0.00000716,0.00001347,-0.00000414,-0.00001071,-0.00000173
 ,0.00000063,-0.00000091,0.00001478,-0.00000107,0.00000165,0.00000541,0
 .00000267,-0.00000038,0.00000793,-0.00000180,-0.00000360,0.00000275,-0
 .00000010,-0.00000023,0.00000289,-0.00000944,-0.00000571,-0.00000848,-
 0.00000046,-0.00000100,0.00001220,-0.00001149,0.00000295,0.00000464,-0
 .00000381,-0.00001620,-0.00000082,0.00000821,-0.00000087,0.00000409,-0
 .00000746,-0.00000428,-0.00000885,0.00000624,0.00000889,-0.00000070,-0
 .00000507,-0.00000219,-0.00000956,-0.00000581,-0.00000242,-0.00003269,
 -0.00000327,-0.00000889,-0.00000425,-0.00000867,-0.00000163,0.00000125
 ,-0.00000649,-0.00000577,-0.00000483,-0.00000127,-0.00000364,-0.000001
 32,-0.00000528,-0.00000063,-0.00000309,-0.00000724,0.00000101,-0.00000
 351,-0.00000807,-0.00000333,0.00000092,-0.00000645,-0.00000165,0.00000
 396,-0.00000889,-0.00000304,-0.00000263,-0.00000885,-0.00000479,-0.000
 00577,-0.00000748,-0.00000385,0.00000149,-0.00000622,-0.00000482,-0.00
 000236,-0.00000751,-0.00000402\\\@


 TERRY FORSTER, PORTLY ATLANTA BRAVES RELIEVER,
 ANNOUNCING THAT HE WAS GOING TO A FAT FARM:
 "A WAIST IS A TERRIBLE THING TO MIND."
 Job cpu time:       3 days  3 hours 33 minutes 21.1 seconds.
 Elapsed time:       0 days  7 hours 53 minutes  2.4 seconds.
 File lengths (MBytes):  RWF=   6902 Int=      0 D2E=      0 Chk=     67 Scr=      1
 Normal termination of Gaussian 16 at Wed Feb 19 10:41:24 2025.
