 Entering Gaussian System, Link 0=/sysapps/ubuntu-applications/gaussian-new/avx/g16//g16
 Input=irc-min.in
 Output=irc-min.log
 Initial command:
 /sysapps/ubuntu-applications/gaussian-new/avx/g16/l1.exe "/data/temp-scratch/selhajj1/7580461/Gau-2543014.inp" -scrdir="/data/temp-scratch/selhajj1/7580461/"
 Entering Link 1 = /sysapps/ubuntu-applications/gaussian-new/avx/g16/l1.exe PID=   2543016.
  
 Copyright (c) 1988,1990,1992,1993,1995,1998,2003,2009,2016,
            Gaussian, Inc.  All Rights Reserved.
  
 This is part of the Gaussian(R) 16 program.  It is based on
 the Gaussian(R) 09 system (copyright 2009, Gaussian, Inc.),
 the Gaussian(R) 03 system (copyright 2003, Gaussian, Inc.),
 the Gaussian(R) 98 system (copyright 1998, Gaussian, Inc.),
 the Gaussian(R) 94 system (copyright 1995, Gaussian, Inc.),
 the Gaussian 92(TM) system (copyright 1992, Gaussian, Inc.),
 the Gaussian 90(TM) system (copyright 1990, Gaussian, Inc.),
 the Gaussian 88(TM) system (copyright 1988, Gaussian, Inc.),
 the Gaussian 86(TM) system (copyright 1986, Carnegie Mellon
 University), and the Gaussian 82(TM) system (copyright 1983,
 Carnegie Mellon University). Gaussian is a federally registered
 trademark of Gaussian, Inc.
  
 This software contains proprietary and confidential information,
 including trade secrets, belonging to Gaussian, Inc.
  
 This software is provided under written license and may be
 used, copied, transmitted, or stored only in accord with that
 written license.
  
 The following legend is applicable only to US Government
 contracts under FAR:
  
                    RESTRICTED RIGHTS LEGEND
  
 Use, reproduction and disclosure by the US Government is
 subject to restrictions as set forth in subparagraphs (a)
 and (c) of the Commercial Computer Software - Restricted
 Rights clause in FAR 52.227-19.
  
 Gaussian, Inc.
 340 Quinnipiac St., Bldg. 40, Wallingford CT 06492
  
  
 ---------------------------------------------------------------
 Warning -- This program may not be used in any manner that
 competes with the business of Gaussian, Inc. or will provide
 assistance to any competitor of Gaussian, Inc.  The licensee
 of this program is prohibited from giving any competitor of
 Gaussian, Inc. access to this program.  By using this program,
 the user acknowledges that Gaussian, Inc. is engaged in the
 business of creating and licensing software in the field of
 computational chemistry and represents and warrants to the
 licensee that it is not a competitor of Gaussian, Inc. and that
 it will not use this program in any manner prohibited above.
 ---------------------------------------------------------------
  

 Cite this work as:
 Gaussian 16, Revision A.03,
 M. J. Frisch, G. W. Trucks, H. B. Schlegel, G. E. Scuseria, 
 M. A. Robb, J. R. Cheeseman, G. Scalmani, V. Barone, 
 G. A. Petersson, H. Nakatsuji, X. Li, M. Caricato, A. V. Marenich, 
 J. Bloino, B. G. Janesko, R. Gomperts, B. Mennucci, H. P. Hratchian, 
 J. V. Ortiz, A. F. Izmaylov, J. L. Sonnenberg, D. Williams-Young, 
 F. Ding, F. Lipparini, F. Egidi, J. Goings, B. Peng, A. Petrone, 
 T. Henderson, D. Ranasinghe, V. G. Zakrzewski, J. Gao, N. Rega, 
 G. Zheng, W. Liang, M. Hada, M. Ehara, K. Toyota, R. Fukuda, 
 J. Hasegawa, M. Ishida, T. Nakajima, Y. Honda, O. Kitao, H. Nakai, 
 T. Vreven, K. Throssell, J. A. Montgomery, Jr., J. E. Peralta, 
 F. Ogliaro, M. J. Bearpark, J. J. Heyd, E. N. Brothers, K. N. Kudin, 
 V. N. Staroverov, T. A. Keith, R. Kobayashi, J. Normand, 
 K. Raghavachari, A. P. Rendell, J. C. Burant, S. S. Iyengar, 
 J. Tomasi, M. Cossi, J. M. Millam, M. Klene, C. Adamo, R. Cammi, 
 J. W. Ochterski, R. L. Martin, K. Morokuma, O. Farkas, 
 J. B. Foresman, and D. J. Fox, Gaussian, Inc., Wallingford CT, 2016.
 
 ******************************************
 Gaussian 16:  ES64L-G16RevA.03 25-Dec-2016
                13-Feb-2025 
 ******************************************
 %chk=ts-min.chk
 %mem=616Gb
 %nprocshared=24
 Will use up to   24 processors via shared memory.
 ----------------------------------------------------------------------
 # irc=(maxpoints=100,recorrect=never,calcfc,maxcycles=500,nogradstop) 
 MN15/gen scrf=(smd,solvent=DiChloroEthane)
 ----------------------------------------------------------------------
 1/6=500,10=4,18=10,26=3,38=1,42=100,44=3,108=-1,131=1,172=1/1,23;
 2/12=2,17=6,18=5,29=1,40=1/2;
 3/5=7,11=2,25=1,30=1,70=32201,71=2,72=10,74=-73,140=1/1,2,3;
 4//1;
 5/5=2,38=5,53=10/2;
 8/6=4,10=90,11=11/1;
 11/6=1,8=1,9=11,15=111,16=1/1,2,10;
 10/6=1,13=1/2;
 6/7=2,8=2,9=2,10=2,28=1/1;
 7/10=1,18=20,25=1/1,2,3,16;
 1/6=500,10=4,18=10,26=3,42=100,44=3,108=-1,131=1/23(2);
 2/29=1/2;
 99/5=20/99;
 2/29=1/2;
 3/5=7,6=1,11=2,25=1,30=1,70=32205,71=2,72=10,74=-73,82=7,140=1/1,2,3;
 4/5=5,16=3,69=1/1;
 5/5=2,38=5,53=10/2;
 8/6=4,10=90,11=11/1;
 11/6=1,8=1,9=11,15=111,16=1/1,2,10;
 10/6=1,13=1/2;
 7/10=1,18=20,25=1/1,2,3,16;
 1/6=500,18=10,26=3,42=100,44=3,108=-1,131=1/23(-8);
 2/29=1/2;
 6/7=2,8=2,9=2,10=2,19=2,28=1/1;
 99/5=20,9=1/99;
 -----------------------------------------------------------
 IRC for Going from i2 to i3, where we are forming bond 7-66
 -----------------------------------------------------------
 Symbolic Z-matrix:
 Charge =  0 Multiplicity = 1
 C                    -1.72179  -0.12206   1.14046 
 C                    -1.36553   0.00781  -0.25812 
 C                    -0.61318  -0.23844   2.06465 
 O                     0.56576  -0.51858   1.7379 
 O                    -0.21811   0.10993  -0.73504 
 O                    -2.38717  -0.08388  -1.07284 
 O                    -0.91741  -0.15971   3.33861 
 C                    -2.13643  -0.06567  -2.48187 
 C                     0.14472  -0.31159   4.28884 
 H                    -3.0782   -0.34472  -2.96594 
 H                    -1.34159  -0.78206  -2.73255 
 H                    -1.83516   0.94257  -2.79457 
 H                    -0.30587  -0.15842   5.27429 
 H                     0.92509   0.43838   4.10163 
 H                     0.57783  -1.31789   4.21746 
 O                     3.50799  -0.88813   0.88099 
 O                     2.44611  -0.33773  -1.82547 
 O                     0.49894   2.09738   1.0394 
 S                     1.01864   2.99714  -0.02287 
 S                     4.11482   0.24476   1.64981 
 S                     2.1421   -1.80691  -1.78629 
 O                     1.90289   2.13514  -0.87504 
 O                     1.52348   4.29203   0.35441 
 O                     3.07081   1.31237   1.59138 
 O                     4.73594  -0.04369   2.91373 
 O                     1.50621  -2.03418  -0.46274 
 O                     1.50096  -2.37888  -2.9463 
 C                     3.82335  -2.6168   -1.67447 
 C                     5.42439   0.85697   0.51115 
 C                    -0.45776   3.33279  -1.12491 
 F                     3.85156  -3.42308  -0.6326 
 F                     4.76375  -1.70041  -1.55622 
 F                     4.02966  -3.31424  -2.77612 
 F                     4.86096   1.14057  -0.65057 
 F                     6.33721  -0.08016   0.34807 
 F                     5.97949   1.94126   1.01472 
 F                    -1.54669   2.79109  -0.59444 
 F                    -0.25552   2.81197  -2.31978 
 F                    -0.6314    4.63351  -1.23302 
 C                    -4.41654   0.1001    1.16011 
 C                    -4.61522  -1.44922   1.21146 
 C                    -5.93028  -1.87564   0.68783 
 C                    -4.60237  -1.84258   2.64354 
 C                    -1.25998  -2.87577   0.38785 
 C                    -2.8539   -3.18121  -1.38817 
 C                    -1.5195   -3.31799  -0.87062 
 H                    -0.27948  -2.979     0.85276 
 H                    -3.12035  -3.5547   -2.37925 
 H                    -0.74695  -3.7967   -1.47457 
 N                    -6.99454  -2.19023   0.36317 
 N                    -4.59108  -2.11742   3.76708 
 N                    -3.53147  -2.18161   0.52421 
 N                    -3.81208  -2.63046  -0.7075 
 C                    -2.29196  -2.17749   1.10376 
 H                    -2.28708  -2.16323   2.19773 
 C                    -3.00735   0.49635   1.68212 
 H                    -2.93745   1.59106   1.58333 
 H                    -3.00809   0.29511   2.7624 
 Sc                    1.69309   0.21864   0.16045 
 H                    -5.08257   0.45777   1.96254 
 C                    -4.90376   0.83691  -0.08179 
 C                    -5.03508   2.22885   0.04494 
 C                    -5.25237   0.24691  -1.30181 
 C                    -5.48334   3.01146  -1.01865 
 H                    -4.7909    2.70909   0.99728 
 C                    -5.71214   1.02788  -2.36633 
 H                    -5.14086  -0.82789  -1.45375 
 C                    -5.82561   2.41185  -2.23312 
 H                    -5.57438   4.09274  -0.89314 
 H                    -5.97502   0.54324  -3.30956 
 H                    -6.18144   3.01953  -3.06804 
 
 IRC-IRC-IRC-IRC-IRC-IRC-IRC-IRC-IRC-IRC-IRC-IRC-IRC-IRC-IRC-IRC-IRC-IRC
 ------------------------------------------------------------------------
 INPUT DATA FOR L123
 ------------------------------------------------------------------------
 GENERAL PARAMETERS:
 Follow reaction path in both directions.
 Maximum points per path      = 100
 Step size                    =   0.100 bohr
 Integration scheme           = HPC                                 
    Redo corrector integration= Never                               
    DWI Weight Power          =  2
    DWI will use Hessian update vectors when possible.
 Initial Hessian              = CalcFC
 Hessian evaluation           = All updating
 Hessian updating method      = Bofill                              
 ------------------------------------------------------------------------
 IRC-IRC-IRC-IRC-IRC-IRC-IRC-IRC-IRC-IRC-IRC-IRC-IRC-IRC-IRC-IRC-IRC-IRC
 Symmetry turned off by external request.
 Stoichiometry    C23H18F9N4O13S3Sc
 Framework group  C1[X(C23H18F9N4O13S3Sc)]
 Deg. of freedom   207
 Full point group                 C1      NOp   1
                          Input orientation:                          
 ---------------------------------------------------------------------
 Center     Atomic      Atomic             Coordinates (Angstroms)
 Number     Number       Type             X           Y           Z
 ---------------------------------------------------------------------
      1          6           0       -1.721785   -0.122061    1.140459
      2          6           0       -1.365528    0.007809   -0.258115
      3          6           0       -0.613175   -0.238436    2.064653
      4          8           0        0.565761   -0.518584    1.737902
      5          8           0       -0.218109    0.109931   -0.735035
      6          8           0       -2.387171   -0.083880   -1.072843
      7          8           0       -0.917409   -0.159712    3.338605
      8          6           0       -2.136425   -0.065667   -2.481865
      9          6           0        0.144718   -0.311585    4.288838
     10          1           0       -3.078197   -0.344720   -2.965938
     11          1           0       -1.341593   -0.782061   -2.732548
     12          1           0       -1.835160    0.942574   -2.794567
     13          1           0       -0.305868   -0.158420    5.274287
     14          1           0        0.925090    0.438384    4.101631
     15          1           0        0.577833   -1.317885    4.217455
     16          8           0        3.507987   -0.888132    0.880994
     17          8           0        2.446111   -0.337728   -1.825471
     18          8           0        0.498944    2.097379    1.039403
     19         16           0        1.018640    2.997137   -0.022874
     20         16           0        4.114822    0.244760    1.649806
     21         16           0        2.142099   -1.806907   -1.786294
     22          8           0        1.902891    2.135140   -0.875040
     23          8           0        1.523483    4.292031    0.354406
     24          8           0        3.070814    1.312365    1.591377
     25          8           0        4.735943   -0.043692    2.913729
     26          8           0        1.506207   -2.034182   -0.462743
     27          8           0        1.500962   -2.378879   -2.946298
     28          6           0        3.823351   -2.616797   -1.674470
     29          6           0        5.424393    0.856971    0.511152
     30          6           0       -0.457756    3.332795   -1.124910
     31          9           0        3.851562   -3.423076   -0.632600
     32          9           0        4.763750   -1.700408   -1.556222
     33          9           0        4.029661   -3.314239   -2.776115
     34          9           0        4.860963    1.140572   -0.650565
     35          9           0        6.337207   -0.080156    0.348066
     36          9           0        5.979486    1.941260    1.014719
     37          9           0       -1.546693    2.791094   -0.594437
     38          9           0       -0.255521    2.811974   -2.319782
     39          9           0       -0.631403    4.633509   -1.233016
     40          6           0       -4.416544    0.100103    1.160111
     41          6           0       -4.615223   -1.449216    1.211457
     42          6           0       -5.930275   -1.875636    0.687833
     43          6           0       -4.602371   -1.842579    2.643535
     44          6           0       -1.259978   -2.875770    0.387850
     45          6           0       -2.853897   -3.181206   -1.388173
     46          6           0       -1.519496   -3.317988   -0.870620
     47          1           0       -0.279482   -2.979002    0.852761
     48          1           0       -3.120354   -3.554695   -2.379253
     49          1           0       -0.746953   -3.796697   -1.474566
     50          7           0       -6.994544   -2.190228    0.363172
     51          7           0       -4.591080   -2.117424    3.767083
     52          7           0       -3.531465   -2.181608    0.524210
     53          7           0       -3.812081   -2.630455   -0.707496
     54          6           0       -2.291958   -2.177490    1.103755
     55          1           0       -2.287082   -2.163225    2.197732
     56          6           0       -3.007351    0.496347    1.682120
     57          1           0       -2.937449    1.591064    1.583328
     58          1           0       -3.008091    0.295108    2.762401
     59         21           0        1.693086    0.218635    0.160454
     60          1           0       -5.082570    0.457774    1.962542
     61          6           0       -4.903762    0.836909   -0.081788
     62          6           0       -5.035077    2.228853    0.044940
     63          6           0       -5.252367    0.246909   -1.301814
     64          6           0       -5.483336    3.011464   -1.018645
     65          1           0       -4.790902    2.709086    0.997277
     66          6           0       -5.712138    1.027877   -2.366332
     67          1           0       -5.140862   -0.827885   -1.453753
     68          6           0       -5.825611    2.411846   -2.233117
     69          1           0       -5.574378    4.092735   -0.893144
     70          1           0       -5.975020    0.543236   -3.309555
     71          1           0       -6.181439    3.019526   -3.068035
 ---------------------------------------------------------------------
 Rotational constants (GHZ):           0.0833109           0.0387125           0.0350815
 General basis read from cards:  (5D, 7F)
   875 basis functions,  1564 primitive gaussians,   934 cartesian basis functions
   219 alpha electrons      219 beta electrons
       nuclear repulsion energy     10815.0656381049 Hartrees.
 NAtoms=   71 NActive=   71 NUniq=   71 SFac= 1.00D+00 NAtFMM=   60 NAOKFM=T Big=T
 Integral buffers will be    131072 words long.
 Raffenetti 2 integral format.
 Two-electron integral symmetry is turned off.
 Force inversion solution in PCM.
 ------------------------------------------------------------------------------
 Polarizable Continuum Model (PCM)
 =================================
 Model                : PCM.
 Atomic radii         : SMD-Coulomb.
 Polarization charges : Total charges.
 Charge compensation  : None.
 Solution method      : Matrix inversion.
 Cavity type          : VdW (van der Waals Surface) (Alpha=1.000).
 Cavity algorithm     : GePol (No added spheres)
                        Default sphere list used, NSphG=   71.
                        Lebedev-Laikov grids with approx.  5.0 points / Ang**2.
                        Smoothing algorithm: York/Karplus (Gamma=1.0000).
                        Polarization charges: spherical gaussians, with
                                              point-specific exponents (IZeta= 3).
                        Self-potential: point-specific (ISelfS= 7).
                        Self-field    : sphere-specific E.n sum rule (ISelfD= 2).
 1st derivatives      : Analytical E(r).r(x)/FMM algorithm (CHGder, D1EAlg=3).
                        Cavity 1st derivative terms included.
 2nd derivatives      : Analytical E(r).r(xy)/FMM algorithm (CHGder, D2EAlg=3).
                        Cavity 2nd derivative terms included.
 Solvent              : DiChloroEthane, Eps=  10.125000 Eps(inf)=   2.087447
 ------------------------------------------------------------------------------
 ------------------------------------------------------------------------------
 Atomic radii for non-electrostatic terms: SMD-CDS.
 ------------------------------------------------------------------------------
 Nuclear repulsion after PCM non-electrostatic terms =    10815.0715108795 Hartrees.
 One-electron integrals computed using PRISM.
 NBasis=   875 RedAO= T EigKep=  1.86D-04  NBF=   875
 NBsUse=   875 1.00D-06 EigRej= -1.00D+00 NBFU=   875
 ExpMin= 3.01D-02 ExpMax= 1.92D+05 ExpMxC= 1.85D+03 IAcc=3 IRadAn=         5 AccDes= 0.00D+00
 Harris functional with IExCor= 1009 and IRadAn=       5 diagonalized for initial guess.
 HarFok:  IExCor= 1009 AccDes= 0.00D+00 IRadAn=         5 IDoV= 1 UseB2=F ITyADJ=14
 ICtDFT=  3500011 ScaDFX=  1.000000  1.000000  1.000000  1.000000
 FoFCou: FMM=F IPFlag=           0 FMFlag=      100000 FMFlg1=        2001
         NFxFlg=           0 DoJE=T BraDBF=F KetDBF=T FulRan=T
         wScrn=  0.000000 ICntrl=       500 IOpCl=  0 I1Cent=   200000004 NGrid=           0
         NMat0=    1 NMatS0=      1 NMatT0=    0 NMatD0=    1 NMtDS0=    0 NMtDT0=    0
 Symmetry not used in FoFCou.
 Requested convergence on RMS density matrix=1.00D-08 within 128 cycles.
 Requested convergence on MAX density matrix=1.00D-06.
 Requested convergence on             energy=1.00D-06.
 No special actions if energy rises.
 Inv3:  Mode=1 IEnd=    69494907.
 Iteration    1 A*A^-1 deviation from unit magnitude is 5.33D-15 for   4793.
 Iteration    1 A*A^-1 deviation from orthogonality  is 6.45D-15 for   4800   4338.
 Iteration    1 A^-1*A deviation from unit magnitude is 5.33D-15 for   4793.
 Iteration    1 A^-1*A deviation from orthogonality  is 3.55D-15 for   4812   4097.
 Error on total polarization charges =  0.03099
 SCF Done:  E(RMN15) =  -4931.91551306     A.U. after   15 cycles
            NFock= 15  Conv=0.49D-08     -V/T= 2.0065
 SMD-CDS (non-electrostatic) energy       (kcal/mol) =       3.69
 (included in total energy above)
 DoSCS=F DFT=T ScalE2(SS,OS)=  1.000000  1.000000
 Range of M.O.s used for correlation:     1   875
 NBasis=   875 NAE=   219 NBE=   219 NFC=     0 NFV=     0
 NROrb=    875 NOA=   219 NOB=   219 NVA=   656 NVB=   656

 **** Warning!!: The largest alpha MO coefficient is  0.11250445D+02

 Symmetrizing basis deriv contribution to polar:
 IMax=3 JMax=2 DiffMx= 0.00D+00
 G2DrvN: will do    72 centers at a time, making    1 passes.
 Calling FoFCou, ICntrl=  3107 FMM=T I1Cent=   0 AccDes= 0.00D+00.
 NEqPCM:  Using equilibrium solvation (IEInf=0, Eps=  10.1250, EpsInf=   2.0874)
 G2PCM: DoFxE=T DoFxN=T DoGrad=T DoDP/DQ/DG/TGxP=FFFF NFrqRd=   0 IEInf=0 SqF1=F DoCFld=F IF1Alg=4.
 End of G2Drv F.D. properties file   721 does not exist.
 End of G2Drv F.D. properties file   722 does not exist.
 End of G2Drv F.D. properties file   788 does not exist.
          IDoAtm=11111111111111111111111111111111111111111111111111
          IDoAtm=111111111111111111111
 NEqPCM:  Using equilibrium solvation (IEInf=0, Eps=  10.1250, EpsInf=   2.0874)
          Differentiating once with respect to nuclear coordinates.
 CalDSu exits because no D1Ps are significant.
          There are   216 degrees of freedom in the 1st order CPHF.  IDoFFX=6 NUNeed=     0.
    213 vectors produced by pass  0 Test12= 1.44D-13 1.00D-09 XBig12= 1.88D-01 1.65D-01.
 AX will form    72 AO Fock derivatives at one time.
    210 vectors produced by pass  1 Test12= 1.44D-13 1.00D-09 XBig12= 7.50D-02 3.82D-02.
    210 vectors produced by pass  2 Test12= 1.44D-13 1.00D-09 XBig12= 1.07D-03 3.50D-03.
    210 vectors produced by pass  3 Test12= 1.44D-13 1.00D-09 XBig12= 1.17D-05 3.80D-04.
    210 vectors produced by pass  4 Test12= 1.44D-13 1.00D-09 XBig12= 9.62D-08 2.75D-05.
    210 vectors produced by pass  5 Test12= 1.44D-13 1.00D-09 XBig12= 4.98D-10 1.55D-06.
    177 vectors produced by pass  6 Test12= 1.44D-13 1.00D-09 XBig12= 2.03D-12 1.25D-07.
     50 vectors produced by pass  7 Test12= 1.44D-13 1.00D-09 XBig12= 7.24D-15 6.77D-09.
      2 vectors produced by pass  8 Test12= 1.44D-13 1.00D-09 XBig12= 2.37D-15 1.74D-09.
 InvSVY:  IOpt=1 It=  1 EMax= 6.66D-16
 Solved reduced A of dimension  1492 with   216 vectors.
 End of Minotr F.D. properties file   721 does not exist.
 End of Minotr F.D. properties file   722 does not exist.
 End of Minotr F.D. properties file   788 does not exist.

 **********************************************************************

            Population analysis using the SCF density.

 **********************************************************************

 Alpha  occ. eigenvalues -- -160.20933 -88.06440 -88.05758 -88.05622 -24.34392
 Alpha  occ. eigenvalues --  -24.34333 -24.34195 -24.34187 -24.34124 -24.33951
 Alpha  occ. eigenvalues --  -24.33606 -24.33571 -24.33548 -18.89374 -18.89316
 Alpha  occ. eigenvalues --  -18.85482 -18.85022 -18.84972 -18.84949 -18.84262
 Alpha  occ. eigenvalues --  -18.84224 -18.84083 -18.83825 -18.83696 -18.83261
 Alpha  occ. eigenvalues --  -18.83113 -17.19499 -14.49631 -14.49626 -14.49565
 Alpha  occ. eigenvalues --  -14.24279 -14.18459 -14.14751 -14.14013 -10.33740
 Alpha  occ. eigenvalues --  -10.33468 -10.33216 -10.22859 -10.22672 -10.21766
 Alpha  occ. eigenvalues --  -10.17754 -10.13899 -10.13514 -10.12695 -10.11504
 Alpha  occ. eigenvalues --  -10.11361 -10.11176 -10.10654 -10.10402 -10.09677
 Alpha  occ. eigenvalues --  -10.08785 -10.07652 -10.05972 -10.05960 -10.05806
 Alpha  occ. eigenvalues --  -10.05798 -10.05643  -7.96271  -7.95523  -7.95441
 Alpha  occ. eigenvalues --   -6.15785  -6.15743  -6.15612  -6.15042  -6.14988
 Alpha  occ. eigenvalues --   -6.14960  -6.14908  -6.14896  -6.14793  -2.15779
 Alpha  occ. eigenvalues --   -1.40435  -1.40246  -1.40096  -1.38029  -1.37885
 Alpha  occ. eigenvalues --   -1.37429  -1.28023  -1.28013  -1.27828  -1.27823
 Alpha  occ. eigenvalues --   -1.27381  -1.27306  -1.20815  -1.19886  -1.19640
 Alpha  occ. eigenvalues --   -1.18429  -1.17712  -1.13797  -1.08512  -1.07870
 Alpha  occ. eigenvalues --   -1.07102  -1.06772  -1.06656  -1.05645  -1.04882
 Alpha  occ. eigenvalues --   -1.04815  -0.99728  -0.97028  -0.95556  -0.91225
 Alpha  occ. eigenvalues --   -0.90494  -0.88177  -0.86377  -0.81598  -0.80426
 Alpha  occ. eigenvalues --   -0.80320  -0.79600  -0.79347  -0.78337  -0.77717
 Alpha  occ. eigenvalues --   -0.75642  -0.74795  -0.73471  -0.72363  -0.71977
 Alpha  occ. eigenvalues --   -0.71626  -0.68910  -0.67960  -0.67918  -0.67903
 Alpha  occ. eigenvalues --   -0.67742  -0.67350  -0.67319  -0.66144  -0.64843
 Alpha  occ. eigenvalues --   -0.64640  -0.64388  -0.63624  -0.62865  -0.62545
 Alpha  occ. eigenvalues --   -0.62378  -0.61708  -0.60986  -0.59722  -0.59478
 Alpha  occ. eigenvalues --   -0.58291  -0.57798  -0.57670  -0.57261  -0.57057
 Alpha  occ. eigenvalues --   -0.56567  -0.56152  -0.55989  -0.55486  -0.55284
 Alpha  occ. eigenvalues --   -0.55277  -0.55137  -0.54952  -0.54909  -0.54492
 Alpha  occ. eigenvalues --   -0.54448  -0.54145  -0.54022  -0.53810  -0.53486
 Alpha  occ. eigenvalues --   -0.53084  -0.52999  -0.52060  -0.52016  -0.51774
 Alpha  occ. eigenvalues --   -0.51765  -0.51686  -0.51251  -0.50976  -0.50943
 Alpha  occ. eigenvalues --   -0.50428  -0.49339  -0.49261  -0.48659  -0.48600
 Alpha  occ. eigenvalues --   -0.48545  -0.48501  -0.47912  -0.47664  -0.47321
 Alpha  occ. eigenvalues --   -0.46677  -0.46374  -0.46070  -0.45807  -0.45324
 Alpha  occ. eigenvalues --   -0.45239  -0.45091  -0.44622  -0.44367  -0.43576
 Alpha  occ. eigenvalues --   -0.43281  -0.42824  -0.42644  -0.42562  -0.42118
 Alpha  occ. eigenvalues --   -0.41591  -0.41472  -0.41212  -0.40928  -0.40873
 Alpha  occ. eigenvalues --   -0.40579  -0.40345  -0.39973  -0.39657  -0.39246
 Alpha  occ. eigenvalues --   -0.38981  -0.38858  -0.38796  -0.38498  -0.38404
 Alpha  occ. eigenvalues --   -0.38192  -0.37904  -0.37748  -0.37358  -0.36997
 Alpha  occ. eigenvalues --   -0.36814  -0.36754  -0.36497  -0.36201  -0.35831
 Alpha  occ. eigenvalues --   -0.35695  -0.29314  -0.28682  -0.26561
 Alpha virt. eigenvalues --   -0.07302  -0.04488  -0.02615  -0.01533  -0.01303
 Alpha virt. eigenvalues --    0.00297   0.00589   0.00658   0.00938   0.01609
 Alpha virt. eigenvalues --    0.02219   0.04602   0.05108   0.05989   0.07007
 Alpha virt. eigenvalues --    0.07214   0.08072   0.08485   0.08961   0.09178
 Alpha virt. eigenvalues --    0.09310   0.09722   0.09892   0.10049   0.10491
 Alpha virt. eigenvalues --    0.10560   0.10902   0.11272   0.11875   0.12458
 Alpha virt. eigenvalues --    0.12755   0.13139   0.13488   0.13831   0.13996
 Alpha virt. eigenvalues --    0.14354   0.14730   0.14784   0.15601   0.16135
 Alpha virt. eigenvalues --    0.16469   0.16882   0.17254   0.17634   0.18044
 Alpha virt. eigenvalues --    0.18339   0.18434   0.19236   0.19370   0.19796
 Alpha virt. eigenvalues --    0.19950   0.20223   0.20684   0.20940   0.21476
 Alpha virt. eigenvalues --    0.21810   0.22332   0.22724   0.23294   0.24006
 Alpha virt. eigenvalues --    0.24324   0.24618   0.25221   0.25316   0.25690
 Alpha virt. eigenvalues --    0.25775   0.26331   0.26440   0.26756   0.27210
 Alpha virt. eigenvalues --    0.27566   0.27971   0.28273   0.28430   0.28900
 Alpha virt. eigenvalues --    0.29053   0.29997   0.30283   0.30430   0.31520
 Alpha virt. eigenvalues --    0.31897   0.32787   0.33536   0.33742   0.34520
 Alpha virt. eigenvalues --    0.35363   0.35736   0.36436   0.38190   0.38605
 Alpha virt. eigenvalues --    0.39143   0.40044   0.40343   0.40461   0.41365
 Alpha virt. eigenvalues --    0.41849   0.42418   0.43028   0.43204   0.43661
 Alpha virt. eigenvalues --    0.44326   0.44455   0.44875   0.45425   0.45697
 Alpha virt. eigenvalues --    0.45974   0.46723   0.47101   0.47246   0.47404
 Alpha virt. eigenvalues --    0.47680   0.48342   0.48722   0.49019   0.49147
 Alpha virt. eigenvalues --    0.49536   0.49858   0.50143   0.50340   0.50686
 Alpha virt. eigenvalues --    0.51009   0.51506   0.51744   0.52411   0.52917
 Alpha virt. eigenvalues --    0.52958   0.53608   0.54330   0.54429   0.55006
 Alpha virt. eigenvalues --    0.55353   0.55816   0.56095   0.56433   0.56671
 Alpha virt. eigenvalues --    0.57410   0.58112   0.58552   0.59079   0.59283
 Alpha virt. eigenvalues --    0.60330   0.60855   0.61368   0.61831   0.61895
 Alpha virt. eigenvalues --    0.62651   0.63047   0.63814   0.64570   0.64714
 Alpha virt. eigenvalues --    0.64853   0.65727   0.65885   0.66233   0.66546
 Alpha virt. eigenvalues --    0.66706   0.67377   0.67438   0.67590   0.67739
 Alpha virt. eigenvalues --    0.67795   0.67957   0.68453   0.68651   0.68924
 Alpha virt. eigenvalues --    0.69339   0.69645   0.69992   0.70070   0.70145
 Alpha virt. eigenvalues --    0.70548   0.70804   0.70954   0.71054   0.71287
 Alpha virt. eigenvalues --    0.71718   0.72023   0.72387   0.72890   0.73248
 Alpha virt. eigenvalues --    0.73565   0.73792   0.74285   0.74447   0.74962
 Alpha virt. eigenvalues --    0.75815   0.75984   0.76586   0.76718   0.77185
 Alpha virt. eigenvalues --    0.77508   0.77674   0.78525   0.78568   0.79450
 Alpha virt. eigenvalues --    0.80181   0.80363   0.81045   0.81511   0.82231
 Alpha virt. eigenvalues --    0.82878   0.84210   0.84404   0.85376   0.85601
 Alpha virt. eigenvalues --    0.86650   0.87143   0.87266   0.87897   0.88465
 Alpha virt. eigenvalues --    0.88770   0.89060   0.89732   0.90363   0.91011
 Alpha virt. eigenvalues --    0.91493   0.91752   0.91809   0.92558   0.92923
 Alpha virt. eigenvalues --    0.94039   0.94408   0.94586   0.94896   0.96488
 Alpha virt. eigenvalues --    0.97132   0.97315   0.97378   0.97901   0.98339
 Alpha virt. eigenvalues --    0.99341   0.99872   1.00334   1.01315   1.01703
 Alpha virt. eigenvalues --    1.02582   1.02728   1.02876   1.03864   1.04469
 Alpha virt. eigenvalues --    1.05020   1.05211   1.05575   1.05869   1.06080
 Alpha virt. eigenvalues --    1.06572   1.07671   1.08255   1.08688   1.09111
 Alpha virt. eigenvalues --    1.09318   1.09890   1.10272   1.11028   1.11323
 Alpha virt. eigenvalues --    1.11876   1.12567   1.12746   1.13309   1.13854
 Alpha virt. eigenvalues --    1.14056   1.14206   1.15583   1.15820   1.15931
 Alpha virt. eigenvalues --    1.16612   1.17207   1.17383   1.17916   1.18104
 Alpha virt. eigenvalues --    1.18514   1.19369   1.19555   1.19869   1.20108
 Alpha virt. eigenvalues --    1.20631   1.20862   1.21447   1.22162   1.22303
 Alpha virt. eigenvalues --    1.22480   1.22821   1.23344   1.23610   1.24415
 Alpha virt. eigenvalues --    1.25244   1.25524   1.25907   1.26555   1.26737
 Alpha virt. eigenvalues --    1.27698   1.27833   1.27994   1.28718   1.28884
 Alpha virt. eigenvalues --    1.29159   1.29848   1.30580   1.31070   1.31429
 Alpha virt. eigenvalues --    1.31830   1.32080   1.32808   1.33158   1.33792
 Alpha virt. eigenvalues --    1.34071   1.34171   1.34503   1.35095   1.36241
 Alpha virt. eigenvalues --    1.36849   1.37156   1.37857   1.38230   1.38443
 Alpha virt. eigenvalues --    1.39154   1.39720   1.40361   1.40721   1.40972
 Alpha virt. eigenvalues --    1.41028   1.42072   1.42471   1.43446   1.43670
 Alpha virt. eigenvalues --    1.44409   1.44537   1.45698   1.46180   1.46462
 Alpha virt. eigenvalues --    1.46569   1.48234   1.48579   1.48798   1.49531
 Alpha virt. eigenvalues --    1.49827   1.50646   1.50815   1.52097   1.52383
 Alpha virt. eigenvalues --    1.53081   1.53427   1.54024   1.54400   1.54897
 Alpha virt. eigenvalues --    1.55449   1.55921   1.56148   1.56980   1.57373
 Alpha virt. eigenvalues --    1.57468   1.58811   1.59514   1.59938   1.60306
 Alpha virt. eigenvalues --    1.61009   1.61546   1.61933   1.62491   1.63056
 Alpha virt. eigenvalues --    1.63393   1.64616   1.65052   1.65773   1.65997
 Alpha virt. eigenvalues --    1.66380   1.67162   1.67530   1.68234   1.68630
 Alpha virt. eigenvalues --    1.69370   1.69853   1.70220   1.70503   1.70904
 Alpha virt. eigenvalues --    1.71629   1.72097   1.72302   1.72645   1.73347
 Alpha virt. eigenvalues --    1.73845   1.74333   1.74742   1.75302   1.75521
 Alpha virt. eigenvalues --    1.75868   1.76238   1.76529   1.77236   1.77510
 Alpha virt. eigenvalues --    1.78297   1.78528   1.79002   1.79494   1.80249
 Alpha virt. eigenvalues --    1.80964   1.81289   1.81722   1.82791   1.83221
 Alpha virt. eigenvalues --    1.83662   1.83805   1.84633   1.84672   1.85608
 Alpha virt. eigenvalues --    1.85883   1.86296   1.86802   1.86814   1.87173
 Alpha virt. eigenvalues --    1.87769   1.88153   1.88932   1.89343   1.89551
 Alpha virt. eigenvalues --    1.90970   1.91272   1.91421   1.91803   1.92639
 Alpha virt. eigenvalues --    1.93019   1.93315   1.93560   1.93920   1.94310
 Alpha virt. eigenvalues --    1.94925   1.95501   1.95775   1.96215   1.96668
 Alpha virt. eigenvalues --    1.97016   1.97556   1.97691   1.98652   1.98909
 Alpha virt. eigenvalues --    1.99013   1.99560   2.00474   2.00537   2.01336
 Alpha virt. eigenvalues --    2.02264   2.02674   2.03491   2.04171   2.04525
 Alpha virt. eigenvalues --    2.04799   2.05874   2.06358   2.06973   2.07290
 Alpha virt. eigenvalues --    2.07621   2.09116   2.09402   2.11094   2.11641
 Alpha virt. eigenvalues --    2.12455   2.12854   2.13517   2.14198   2.15128
 Alpha virt. eigenvalues --    2.15706   2.16079   2.16779   2.17529   2.18823
 Alpha virt. eigenvalues --    2.19953   2.20814   2.21509   2.22341   2.22744
 Alpha virt. eigenvalues --    2.23024   2.23596   2.23666   2.24323   2.24623
 Alpha virt. eigenvalues --    2.25735   2.26530   2.27216   2.28561   2.28846
 Alpha virt. eigenvalues --    2.30313   2.30541   2.32084   2.32377   2.34045
 Alpha virt. eigenvalues --    2.34198   2.35296   2.35447   2.36899   2.38233
 Alpha virt. eigenvalues --    2.39177   2.40483   2.40792   2.43165   2.43558
 Alpha virt. eigenvalues --    2.45346   2.46100   2.47978   2.51232   2.52194
 Alpha virt. eigenvalues --    2.54999   2.55224   2.55704   2.56901   2.57401
 Alpha virt. eigenvalues --    2.58492   2.58903   2.59032   2.59788   2.60272
 Alpha virt. eigenvalues --    2.60882   2.61162   2.61365   2.62063   2.62468
 Alpha virt. eigenvalues --    2.62634   2.63056   2.63793   2.64644   2.64814
 Alpha virt. eigenvalues --    2.65179   2.65495   2.66220   2.66790   2.66893
 Alpha virt. eigenvalues --    2.67538   2.68796   2.68992   2.69773   2.70597
 Alpha virt. eigenvalues --    2.71351   2.71538   2.72089   2.72676   2.73326
 Alpha virt. eigenvalues --    2.74226   2.74911   2.76392   2.76996   2.77926
 Alpha virt. eigenvalues --    2.78409   2.78552   2.79186   2.79603   2.80121
 Alpha virt. eigenvalues --    2.80233   2.80938   2.81756   2.82146   2.82220
 Alpha virt. eigenvalues --    2.82390   2.83349   2.83915   2.84245   2.84741
 Alpha virt. eigenvalues --    2.85697   2.86699   2.87032   2.87174   2.89325
 Alpha virt. eigenvalues --    2.90317   2.90854   2.91399   2.91767   2.92921
 Alpha virt. eigenvalues --    2.93040   2.93500   2.94510   2.94959   2.95422
 Alpha virt. eigenvalues --    2.96258   2.96525   2.96947   2.97105   2.97713
 Alpha virt. eigenvalues --    2.98084   2.98485   2.98670   2.99590   2.99804
 Alpha virt. eigenvalues --    3.00342   3.00676   3.01225   3.01835   3.02472
 Alpha virt. eigenvalues --    3.02576   3.02755   3.02865   3.02972   3.03030
 Alpha virt. eigenvalues --    3.03088   3.03183   3.03262   3.03462   3.03549
 Alpha virt. eigenvalues --    3.03608   3.03835   3.04260   3.04616   3.05196
 Alpha virt. eigenvalues --    3.05458   3.05788   3.06256   3.07294   3.07813
 Alpha virt. eigenvalues --    3.09121   3.12086   3.13036   3.13869   3.15168
 Alpha virt. eigenvalues --    3.15313   3.15761   3.15891   3.16242   3.16626
 Alpha virt. eigenvalues --    3.16841   3.19053   3.20533   3.21643   3.22760
 Alpha virt. eigenvalues --    3.23373   3.32718   3.34446   3.35278   3.35413
 Alpha virt. eigenvalues --    3.37187   3.37279   3.37938   3.38298   3.38364
 Alpha virt. eigenvalues --    3.38677   3.39307   3.39984   3.41947   3.44803
 Alpha virt. eigenvalues --    3.51044   3.51543   3.52197   3.52657   3.52817
 Alpha virt. eigenvalues --    3.53360   3.53435   3.54442   3.54761   3.55992
 Alpha virt. eigenvalues --    3.62578   3.67261   3.67593   3.67910   3.68489
 Alpha virt. eigenvalues --    3.80691   3.81298   3.82668   3.82949   3.83452
 Alpha virt. eigenvalues --    3.83961
          Condensed to atoms (all electrons):
 Mulliken charges:
               1
     1  C   -0.290220
     2  C    0.260485
     3  C    0.313514
     4  O   -0.297791
     5  O   -0.254905
     6  O   -0.249132
     7  O   -0.253120
     8  C    0.174513
     9  C    0.158368
    10  H    0.055458
    11  H    0.052024
    12  H    0.062266
    13  H    0.069182
    14  H    0.072166
    15  H    0.067667
    16  O   -0.432770
    17  O   -0.437633
    18  O   -0.433810
    19  S    0.887852
    20  S    0.865842
    21  S    0.866199
    22  O   -0.441400
    23  O   -0.399821
    24  O   -0.424602
    25  O   -0.388149
    26  O   -0.434718
    27  O   -0.408621
    28  C    0.441200
    29  C    0.447092
    30  C    0.424863
    31  F   -0.119319
    32  F   -0.114503
    33  F   -0.125612
    34  F   -0.103311
    35  F   -0.119438
    36  F   -0.119884
    37  F   -0.123508
    38  F   -0.111865
    39  F   -0.117668
    40  C    0.084985
    41  C   -0.116418
    42  C   -0.185763
    43  C   -0.182472
    44  C    0.079203
    45  C    0.033290
    46  C    0.034083
    47  H    0.075293
    48  H    0.072837
    49  H    0.051672
    50  N    0.150579
    51  N    0.128406
    52  N   -0.114972
    53  N    0.004953
    54  C    0.153196
    55  H    0.081212
    56  C    0.191160
    57  H    0.048868
    58  H    0.039214
    59  Sc   0.258618
    60  H    0.078641
    61  C    0.055235
    62  C   -0.052328
    63  C   -0.016879
    64  C    0.005855
    65  H    0.009683
    66  C   -0.000893
    67  H   -0.016910
    68  C    0.006504
    69  H    0.009685
    70  H    0.006285
    71  H    0.010288
 Sum of Mulliken charges =  -0.00000
 Mulliken charges with hydrogens summed into heavy atoms:
               1
     1  C   -0.290220
     2  C    0.260485
     3  C    0.313514
     4  O   -0.297791
     5  O   -0.254905
     6  O   -0.249132
     7  O   -0.253120
     8  C    0.344261
     9  C    0.367383
    16  O   -0.432770
    17  O   -0.437633
    18  O   -0.433810
    19  S    0.887852
    20  S    0.865842
    21  S    0.866199
    22  O   -0.441400
    23  O   -0.399821
    24  O   -0.424602
    25  O   -0.388149
    26  O   -0.434718
    27  O   -0.408621
    28  C    0.441200
    29  C    0.447092
    30  C    0.424863
    31  F   -0.119319
    32  F   -0.114503
    33  F   -0.125612
    34  F   -0.103311
    35  F   -0.119438
    36  F   -0.119884
    37  F   -0.123508
    38  F   -0.111865
    39  F   -0.117668
    40  C    0.163625
    41  C   -0.116418
    42  C   -0.185763
    43  C   -0.182472
    44  C    0.154497
    45  C    0.106127
    46  C    0.085755
    50  N    0.150579
    51  N    0.128406
    52  N   -0.114972
    53  N    0.004953
    54  C    0.234408
    56  C    0.279242
    59  Sc   0.258618
    61  C    0.055235
    62  C   -0.042646
    63  C   -0.033789
    64  C    0.015540
    66  C    0.005393
    68  C    0.016792
 APT charges:
               1
     1  C   -0.189965
     2  C   -0.194066
     3  C   -0.161400
     4  O   -0.363845
     5  O   -0.373089
     6  O    0.129889
     7  O    0.133711
     8  C   -0.669420
     9  C   -0.794468
    10  H    0.763305
    11  H    0.051282
    12  H    0.241254
    13  H    0.964876
    14  H    0.091329
    15  H    0.264682
    16  O   -0.646410
    17  O   -0.384304
    18  O   -0.677546
    19  S   -0.004002
    20  S   -0.101224
    21  S    0.101985
    22  O   -0.433216
    23  O    0.750604
    24  O   -0.669765
    25  O    0.822918
    26  O   -0.581674
    27  O    0.229731
    28  C   -0.716391
    29  C   -0.663676
    30  C   -0.510198
    31  F    0.126810
    32  F    0.196565
    33  F    0.699519
    34  F   -0.310061
    35  F    0.621352
    36  F    0.652108
    37  F   -0.174882
    38  F    0.000744
    39  F    0.734838
    40  C   -0.318793
    41  C   -1.577450
    42  C   -3.090185
    43  C   -1.932753
    44  C   -0.612188
    45  C   -0.881275
    46  C   -0.072449
    47  H    0.121811
    48  H    0.892917
    49  H    0.415796
    50  N    4.195446
    51  N    2.393638
    52  N   -0.018359
    53  N    0.281814
    54  C   -0.321284
    55  H    0.388278
    56  C   -0.669647
    57  H    0.249642
    58  H    0.504463
    59  Sc   0.306524
    60  H    0.869376
    61  C   -0.914699
    62  C   -0.429924
    63  C   -0.285727
    64  C   -0.479389
    65  H    0.215975
    66  C   -0.448747
    67  H    0.127090
    68  C   -0.600117
    69  H    0.836160
    70  H    0.761699
    71  H    1.134457
 Sum of APT charges =  -0.00000
 APT charges with hydrogens summed into heavy atoms:
               1
     1  C   -0.189965
     2  C   -0.194066
     3  C   -0.161400
     4  O   -0.363845
     5  O   -0.373089
     6  O    0.129889
     7  O    0.133711
     8  C    0.386420
     9  C    0.526419
    16  O   -0.646410
    17  O   -0.384304
    18  O   -0.677546
    19  S   -0.004002
    20  S   -0.101224
    21  S    0.101985
    22  O   -0.433216
    23  O    0.750604
    24  O   -0.669765
    25  O    0.822918
    26  O   -0.581674
    27  O    0.229731
    28  C   -0.716391
    29  C   -0.663676
    30  C   -0.510198
    31  F    0.126810
    32  F    0.196565
    33  F    0.699519
    34  F   -0.310061
    35  F    0.621352
    36  F    0.652108
    37  F   -0.174882
    38  F    0.000744
    39  F    0.734838
    40  C    0.550583
    41  C   -1.577450
    42  C   -3.090185
    43  C   -1.932753
    44  C   -0.490377
    45  C    0.011641
    46  C    0.343348
    50  N    4.195446
    51  N    2.393638
    52  N   -0.018359
    53  N    0.281814
    54  C    0.066995
    56  C    0.084457
    59  Sc   0.306524
    61  C   -0.914699
    62  C   -0.213949
    63  C   -0.158637
    64  C    0.356771
    66  C    0.312952
    68  C    0.534340
 Electronic spatial extent (au):  <R**2>=          31052.7875
 Charge=              0.0000 electrons
 Dipole moment (field-independent basis, Debye):
    X=            -11.1729    Y=             -4.9132    Z=              0.1987  Tot=             12.2071
 Quadrupole moment (field-independent basis, Debye-Ang):
   XX=           -370.3487   YY=           -330.7854   ZZ=           -319.5882
   XY=            -20.6901   XZ=              6.5997   YZ=              0.3631
 Traceless Quadrupole moment (field-independent basis, Debye-Ang):
   XX=            -30.1079   YY=              9.4554   ZZ=             20.6526
   XY=            -20.6901   XZ=              6.5997   YZ=              0.3631
 Octapole moment (field-independent basis, Debye-Ang**2):
  XXX=            505.3671  YYY=            -57.6253  ZZZ=            -42.6391  XYY=             17.8485
  XXY=            159.1512  XXZ=           -129.5146  XZZ=             21.1072  YZZ=             40.5131
  YYZ=            -54.8821  XYZ=            -38.6846
 Hexadecapole moment (field-independent basis, Debye-Ang**3):
 XXXX=         -27427.2246 YYYY=          -8353.0676 ZZZZ=          -5606.4638 XXXY=          -1227.3051
 XXXZ=            -20.0446 YYYX=           -470.1019 YYYZ=             54.2543 ZZZX=            359.8336
 ZZZY=            108.0297 XXYY=          -5609.4203 XXZZ=          -5216.8011 YYZZ=          -2354.4938
 XXYZ=            148.3292 YYXZ=            127.1179 ZZXY=           -186.3674
 N-N= 1.081507151088D+04 E-N=-3.325626281526D+04  KE= 4.900188119787D+03
  Exact polarizability:   0.000   0.000   0.000   0.000   0.000   0.000
 Approx polarizability: 476.577  12.934 488.411  44.432  34.307 532.740
 D2PCM: PCM CHGder 2nd derivatives, FixD1E=F FixD2E=F DoIter=F DoCFld=F I1PDM=0
 Calling FoFJK, ICntrl=    100147 FMM=F ISym2X=0 I1Cent= 0 IOpClX= 0 NMat=1 NMatS=1 NMatT=0.
 -------------------------------------------------------------------
 Center     Atomic                   Forces (Hartrees/Bohr)
 Number     Number              X              Y              Z
 -------------------------------------------------------------------
      1        6          -0.000000469   -0.000000844   -0.000000215
      2        6          -0.000000085   -0.000000010    0.000000308
      3        6          -0.000001212   -0.000000914   -0.000000809
      4        8          -0.000000605   -0.000000453    0.000000546
      5        8           0.000000636    0.000001113    0.000000391
      6        8           0.000000501   -0.000000087   -0.000000732
      7        8          -0.000001242   -0.000001759    0.000000882
      8        6           0.000001279    0.000001501   -0.000000399
      9        6          -0.000001814   -0.000002103    0.000000237
     10        1           0.000001373    0.000001024   -0.000001172
     11        1           0.000001459    0.000001328   -0.000000519
     12        1           0.000000877    0.000001240    0.000000240
     13        1          -0.000002535   -0.000002683    0.000000415
     14        1          -0.000001930   -0.000001496    0.000001143
     15        1          -0.000001528   -0.000001877   -0.000000003
     16        8          -0.000000022    0.000001173    0.000001695
     17        8           0.000000844    0.000002046    0.000001488
     18        8          -0.000001009    0.000000104    0.000001985
     19       16          -0.000001780    0.000000517    0.000002195
     20       16          -0.000001388    0.000000988    0.000002901
     21       16           0.000001443    0.000002529    0.000000525
     22        8           0.000000012    0.000001297    0.000002477
     23        8          -0.000001366    0.000000997    0.000003971
     24        8          -0.000000848    0.000000258    0.000002591
     25        8          -0.000001362    0.000000195    0.000002251
     26        8           0.000000947    0.000001090   -0.000000117
     27        8           0.000002010    0.000002440   -0.000000077
     28        6           0.000002243    0.000002494    0.000000164
     29        6          -0.000000369    0.000002085    0.000003300
     30        6          -0.000000322    0.000001028    0.000002489
     31        9           0.000001317    0.000001878    0.000000555
     32        9           0.000000988    0.000002682    0.000001648
     33        9           0.000002179    0.000003640    0.000000962
     34        9          -0.000000048    0.000002189    0.000003468
     35        9          -0.000000186    0.000002309    0.000003333
     36        9          -0.000001100    0.000001780    0.000004417
     37        9          -0.000000614    0.000000265    0.000001218
     38        9          -0.000000027    0.000001746    0.000002211
     39        9          -0.000001017    0.000000543    0.000002783
     40        6          -0.000000352   -0.000001925   -0.000002014
     41        6          -0.000000279   -0.000001504   -0.000002666
     42        6           0.000000823   -0.000001973   -0.000002869
     43        6          -0.000000704   -0.000002410   -0.000003853
     44        6           0.000000702   -0.000000083   -0.000001415
     45        6           0.000001815    0.000000465   -0.000002149
     46        6           0.000001290    0.000000229   -0.000002464
     47        1           0.000000505   -0.000000167   -0.000001288
     48        1           0.000002264    0.000000598   -0.000003063
     49        1           0.000001839    0.000001006   -0.000001885
     50        7           0.000000330   -0.000002144   -0.000004005
     51        7          -0.000000972   -0.000003536   -0.000001567
     52        7           0.000000862   -0.000001348   -0.000002378
     53        7           0.000001234   -0.000000483   -0.000002571
     54        6           0.000000051   -0.000001120   -0.000002443
     55        1          -0.000000232   -0.000001604   -0.000001314
     56        6          -0.000000776   -0.000001609   -0.000000557
     57        1          -0.000001284   -0.000001452    0.000000187
     58        1          -0.000001358   -0.000002175   -0.000000738
     59       21          -0.000000025    0.000000649    0.000001528
     60        1          -0.000001355   -0.000002192   -0.000001186
     61        6          -0.000000004   -0.000001493   -0.000000448
     62        6          -0.000000555   -0.000001635   -0.000000339
     63        6           0.000000446   -0.000001140   -0.000002464
     64        6          -0.000000660   -0.000000298   -0.000000412
     65        1          -0.000001339   -0.000001620    0.000000130
     66        6           0.000000760   -0.000000782   -0.000001269
     67        1           0.000000924   -0.000000100   -0.000002138
     68        6           0.000000010    0.000000048   -0.000001177
     69        1          -0.000000982   -0.000000996    0.000000367
     70        1           0.000001391    0.000000422   -0.000001743
     71        1           0.000000401    0.000000117   -0.000000542
 -------------------------------------------------------------------
 Cartesian Forces:  Max     0.000004417 RMS     0.000001571
 IRC-IRC-IRC-IRC-IRC-IRC-IRC-IRC-IRC-IRC-IRC-IRC-IRC-IRC-IRC-IRC-IRC-IRC
          ******** Start new reaction path calculation ********
 Supplied step size of   0.1000 bohr.
    Integration on MW PES will use step size of   0.3091 sqrt(amu)*bohr.
 Point Number:   0          Path Number:   1
 Calculating another point on the path.
 IRC-IRC-IRC-IRC-IRC-IRC-IRC-IRC-IRC-IRC-IRC-IRC-IRC-IRC-IRC-IRC-IRC-IRC
 Symmetry turned off by external request.
 Stoichiometry    C23H18F9N4O13S3Sc
 Framework group  C1[X(C23H18F9N4O13S3Sc)]
 Deg. of freedom   207
 Full point group                 C1      NOp   1
                          Input orientation:                          
 ---------------------------------------------------------------------
 Center     Atomic      Atomic             Coordinates (Angstroms)
 Number     Number       Type             X           Y           Z
 ---------------------------------------------------------------------
      1          6           0       -1.824599   -0.159938    1.152269
      2          6           0       -1.461167   -0.005810   -0.249191
      3          6           0       -0.706931   -0.253797    2.079667
      4          8           0        0.470383   -0.526925    1.750765
      5          8           0       -0.314352    0.103509   -0.720867
      6          8           0       -2.481387   -0.092238   -1.061780
      7          8           0       -1.011549   -0.168314    3.350181
      8          6           0       -2.230938   -0.073623   -2.471432
      9          6           0        0.050721   -0.318660    4.302248
     10          1           0       -3.172836   -0.352801   -2.954856
     11          1           0       -1.435962   -0.790276   -2.720786
     12          1           0       -1.929660    0.934894   -2.782856
     13          1           0       -0.401104   -0.165204    5.286914
     14          1           0        0.830107    0.431894    4.113893
     15          1           0        0.483343   -1.325035    4.230203
     16          8           0        3.413515   -0.896175    0.893262
     17          8           0        2.351793   -0.345389   -1.812838
     18          8           0        0.403948    2.087957    1.051451
     19         16           0        0.924276    2.988791   -0.010364
     20         16           0        4.021013    0.236535    1.662247
     21         16           0        2.048191   -1.815099   -1.773957
     22          8           0        1.808488    2.126197   -0.862294
     23          8           0        1.429425    4.283241    0.367322
     24          8           0        2.976178    1.303714    1.603413
     25          8           0        4.641709   -0.051918    2.926192
     26          8           0        1.412357   -2.040601   -0.449885
     27          8           0        1.406930   -2.386857   -2.933707
     28          6           0        3.729497   -2.625117   -1.662051
     29          6           0        5.330560    0.848824    0.523421
     30          6           0       -0.551882    3.324791   -1.112737
     31          9           0        3.757448   -3.431212   -0.620166
     32          9           0        4.669675   -1.708558   -1.543795
     33          9           0        3.935536   -3.322383   -2.763689
     34          9           0        4.766799    1.132298   -0.638149
     35          9           0        6.243102   -0.088413    0.360460
     36          9           0        5.885428    1.933013    1.027101
     37          9           0       -1.640670    2.782741   -0.582078
     38          9           0       -0.349427    2.803668   -2.307322
     39          9           0       -0.725367    4.625268   -1.220562
     40          6           0       -4.511877    0.092577    1.173335
     41          6           0       -4.708592   -1.456766    1.223091
     42          6           0       -6.024179   -1.883479    0.700253
     43          6           0       -4.696620   -1.850554    2.655854
     44          6           0       -1.351466   -2.878637    0.398974
     45          6           0       -2.949201   -3.188455   -1.375089
     46          6           0       -1.613118   -3.326846   -0.854399
     47          1           0       -0.371171   -2.986587    0.863300
     48          1           0       -3.215106   -3.564569   -2.365367
     49          1           0       -0.843144   -3.814754   -1.454370
     50          7           0       -7.088435   -2.198428    0.375739
     51          7           0       -4.684946   -2.125785    3.779362
     52          7           0       -3.625808   -2.186053    0.537930
     53          7           0       -3.905817   -2.638764   -0.694990
     54          6           0       -2.376759   -2.156134    1.115646
     55          1           0       -2.380208   -2.181451    2.211657
     56          6           0       -3.100807    0.484514    1.692574
     57          1           0       -3.017169    1.577392    1.585373
     58          1           0       -3.101707    0.289001    2.773837
     59         21           0        1.601131    0.210541    0.171993
     60          1           0       -5.176298    0.452418    1.976025
     61          6           0       -4.997930    0.829092   -0.069108
     62          6           0       -5.128931    2.221039    0.057282
     63          6           0       -5.346232    0.238685   -1.289131
     64          6           0       -5.577262    3.003489   -1.006381
     65          1           0       -4.884413    2.701184    1.009654
     66          6           0       -5.805966    1.019578   -2.353778
     67          1           0       -5.234075   -0.836189   -1.440494
     68          6           0       -5.919622    2.403580   -2.220697
     69          1           0       -5.668338    4.084791   -0.881132
     70          1           0       -6.068793    0.534864   -3.296987
     71          1           0       -6.275613    3.011105   -3.055665
 ---------------------------------------------------------------------
 Rotational constants (GHZ):           0.0833440           0.0387130           0.0350876
 Basis read from rwf:  (5D, 7F)
   875 basis functions,  1564 primitive gaussians,   934 cartesian basis functions
   219 alpha electrons      219 beta electrons
       nuclear repulsion energy     10816.2508560735 Hartrees.
 NAtoms=   71 NActive=   71 NUniq=   71 SFac= 1.00D+00 NAtFMM=   60 NAOKFM=T Big=T
 Integral buffers will be    131072 words long.
 Raffenetti 2 integral format.
 Two-electron integral symmetry is turned off.
 Force inversion solution in PCM.
 ------------------------------------------------------------------------------
 Polarizable Continuum Model (PCM)
 =================================
 Model                : PCM.
 Atomic radii         : SMD-Coulomb.
 Polarization charges : Total charges.
 Charge compensation  : None.
 Solution method      : Matrix inversion.
 Cavity type          : VdW (van der Waals Surface) (Alpha=1.000).
 Cavity algorithm     : GePol (No added spheres)
                        Default sphere list used, NSphG=   71.
                        Lebedev-Laikov grids with approx.  5.0 points / Ang**2.
                        Smoothing algorithm: York/Karplus (Gamma=1.0000).
                        Polarization charges: spherical gaussians, with
                                              point-specific exponents (IZeta= 3).
                        Self-potential: point-specific (ISelfS= 7).
                        Self-field    : sphere-specific E.n sum rule (ISelfD= 2).
 1st derivatives      : Analytical E(r).r(x)/FMM algorithm (CHGder, D1EAlg=3).
                        Cavity 1st derivative terms included.
 Solvent              : DiChloroEthane, Eps=  10.125000 Eps(inf)=   2.087447
 ------------------------------------------------------------------------------
 ------------------------------------------------------------------------------
 Atomic radii for non-electrostatic terms: SMD-CDS.
 ------------------------------------------------------------------------------
 Nuclear repulsion after PCM non-electrostatic terms =    10816.2567378516 Hartrees.
 One-electron integrals computed using PRISM.
 NBasis=   875 RedAO= T EigKep=  1.86D-04  NBF=   875
 NBsUse=   875 1.00D-06 EigRej= -1.00D+00 NBFU=   875
 Initial guess from the checkpoint file:  "ts-min.chk"
 B after Tr=    -0.177649   -0.015619    0.023397
         Rot=    1.000000    0.000006   -0.000000   -0.000000 Ang=   0.00 deg.
 ExpMin= 3.01D-02 ExpMax= 1.92D+05 ExpMxC= 1.85D+03 IAcc=3 IRadAn=         5 AccDes= 0.00D+00
 Harris functional with IExCor= 1009 and IRadAn=       5 diagonalized for initial guess.
 HarFok:  IExCor= 1009 AccDes= 0.00D+00 IRadAn=         5 IDoV= 1 UseB2=F ITyADJ=14
 ICtDFT=  3500011 ScaDFX=  1.000000  1.000000  1.000000  1.000000
 FoFCou: FMM=F IPFlag=           0 FMFlag=      100000 FMFlg1=        2001
         NFxFlg=           0 DoJE=T BraDBF=F KetDBF=T FulRan=T
         wScrn=  0.000000 ICntrl=       500 IOpCl=  0 I1Cent=   200000004 NGrid=           0
         NMat0=    1 NMatS0=      1 NMatT0=    0 NMatD0=    1 NMtDS0=    0 NMtDT0=    0
 Symmetry not used in FoFCou.
 Requested convergence on RMS density matrix=1.00D-08 within 128 cycles.
 Requested convergence on MAX density matrix=1.00D-06.
 Requested convergence on             energy=1.00D-06.
 No special actions if energy rises.
 Inv3:  Mode=1 IEnd=    69523788.
 Iteration    1 A*A^-1 deviation from unit magnitude is 7.99D-15 for   4776.
 Iteration    1 A*A^-1 deviation from orthogonality  is 3.37D-15 for   4802   4236.
 Iteration    1 A^-1*A deviation from unit magnitude is 7.99D-15 for   4776.
 Iteration    1 A^-1*A deviation from orthogonality  is 3.66D-15 for   4105   1613.
 Error on total polarization charges =  0.03122
 SCF Done:  E(RMN15) =  -4931.91576497     A.U. after   11 cycles
            NFock= 11  Conv=0.87D-08     -V/T= 2.0065
 SMD-CDS (non-electrostatic) energy       (kcal/mol) =       3.69
 (included in total energy above)
 DoSCS=F DFT=T ScalE2(SS,OS)=  1.000000  1.000000
 Range of M.O.s used for correlation:     1   875
 NBasis=   875 NAE=   219 NBE=   219 NFC=     0 NFV=     0
 NROrb=    875 NOA=   219 NOB=   219 NVA=   656 NVB=   656

 **** Warning!!: The largest alpha MO coefficient is  0.11399075D+02

 Symmetrizing basis deriv contribution to polar:
 IMax=3 JMax=2 DiffMx= 0.00D+00
 D1PCM: PCM CHGder 1st derivatives, ID1Alg=3 FixD1E=F DoIter=F DoCFld=F I1PDM=0.
 Calling FoFJK, ICntrl=      2147 FMM=T ISym2X=0 I1Cent= 0 IOpClX= 0 NMat=1 NMatS=1 NMatT=0.
 -------------------------------------------------------------------
 Center     Atomic                   Forces (Hartrees/Bohr)
 Number     Number              X              Y              Z
 -------------------------------------------------------------------
      1        6          -0.001284235   -0.003791744   -0.000101757
      2        6          -0.000129506   -0.000574927   -0.000499462
      3        6           0.000171222   -0.000797523    0.000406206
      4        8          -0.000243571    0.000029864    0.000062056
      5        8          -0.000347845    0.000289714    0.000300987
      6        8          -0.000015473   -0.000037472   -0.000161564
      7        8          -0.000020693   -0.000040073   -0.000147654
      8        6          -0.000054546    0.000045832   -0.000217218
      9        6           0.000009243    0.000141753    0.000119667
     10        1          -0.000003943    0.000001025   -0.000010977
     11        1           0.000000637   -0.000001835   -0.000004917
     12        1          -0.000002168    0.000005677   -0.000005305
     13        1          -0.000014712    0.000010809    0.000002359
     14        1          -0.000011054    0.000014626    0.000000670
     15        1          -0.000007520    0.000005915    0.000000096
     16        8          -0.000068281    0.000030835   -0.000014472
     17        8          -0.000044189    0.000087515    0.000037241
     18        8          -0.000126469   -0.000165070   -0.000051707
     19       16          -0.000101827   -0.000026850    0.000039344
     20       16           0.000064203    0.000011759    0.000022861
     21       16           0.000035389    0.000015151   -0.000009210
     22        8          -0.000057125   -0.000098941    0.000052641
     23        8          -0.000007497   -0.000074506    0.000079250
     24        8          -0.000093784   -0.000058023   -0.000047496
     25        8          -0.000032479    0.000004380    0.000015822
     26        8           0.000025056    0.000267690    0.000068643
     27        8          -0.000001717    0.000040003    0.000031514
     28        6           0.000021947   -0.000006706    0.000005068
     29        6           0.000020871    0.000013900   -0.000009997
     30        6          -0.000013262    0.000028301   -0.000018819
     31        9          -0.000014565    0.000021711    0.000010710
     32        9          -0.000009593    0.000017515    0.000009773
     33        9          -0.000017851    0.000023363    0.000013081
     34        9          -0.000024100   -0.000001633    0.000011045
     35        9          -0.000016484    0.000002750    0.000006991
     36        9          -0.000010318    0.000002472    0.000004176
     37        9           0.000007206   -0.000012385   -0.000012018
     38        9           0.000017959   -0.000007656    0.000012147
     39        9           0.000009064   -0.000001974    0.000013166
     40        6          -0.000133013    0.000105063    0.000094523
     41        6           0.000093751    0.000072257   -0.000109223
     42        6           0.000011433    0.000042298    0.000003912
     43        6          -0.000039169    0.000026490   -0.000007624
     44        6           0.000325042    0.000559373   -0.000168378
     45        6          -0.000099105    0.000084804    0.000021975
     46        6           0.000046481   -0.000080206    0.000403663
     47        1           0.000020019    0.000003332   -0.000017067
     48        1          -0.000002842   -0.000012296    0.000007402
     49        1          -0.000038654   -0.000075987    0.000089417
     50        7           0.000012597    0.000001700    0.000018514
     51        7           0.000018897   -0.000021191   -0.000008021
     52        7          -0.000216898    0.000400303    0.000038579
     53        7           0.000021026    0.000056027    0.000099933
     54        6           0.001193019    0.003751640    0.000626702
     55        1           0.000045893   -0.000113043   -0.000483506
     56        6           0.000091845   -0.000302803   -0.000233712
     57        1           0.000127702   -0.000136647   -0.000078638
     58        1           0.000011462    0.000016702   -0.000021324
     59       21           0.000840781    0.000068708   -0.000355894
     60        1           0.000001899    0.000031347    0.000009155
     61        6          -0.000012622    0.000046241    0.000030267
     62        6           0.000012861    0.000046031   -0.000008113
     63        6           0.000014827   -0.000001397    0.000030924
     64        6           0.000007853    0.000028247   -0.000014874
     65        1           0.000005260   -0.000000615   -0.000001941
     66        6           0.000023195   -0.000007756    0.000017130
     67        1           0.000008942   -0.000000845    0.000006140
     68        6          -0.000002286   -0.000002645    0.000001821
     69        1          -0.000000562    0.000002033   -0.000003234
     70        1           0.000003569   -0.000000814   -0.000000561
     71        1          -0.000001190   -0.000001595   -0.000000894
 -------------------------------------------------------------------
 Cartesian Forces:  Max     0.003791744 RMS     0.000412841
 IRC-IRC-IRC-IRC-IRC-IRC-IRC-IRC-IRC-IRC-IRC-IRC-IRC-IRC-IRC-IRC-IRC-IRC
 Pt  1 Step number   1 out of a maximum of 500
 Modified Bulirsch-Stoer Extrapolation Cycles:
    EPS =    0.000010000000000
      PEZero:  N= 2 I= 1 D=  8.05D-04 Err=  1.60D-03
      PEZero:  N= 3 I= 2 D=  8.05D-04 Err=  1.04D-03
      PEZero:  N= 3 I= 1 D=  1.61D-03 Err=  4.00D-05
      PEZero:  N= 4 I= 3 D=  4.02D-04 Err=  7.74D-04
      PEZero:  N= 4 I= 2 D=  1.21D-03 Err=  6.41D-06
      PEZero:  N= 4 I= 1 D=  2.01D-03 Err=  1.63D-05
 Maximum DWI energy   std dev =  0.000002553 at pt    58
 Maximum DWI gradient std dev =  0.180113460 at pt     2
 Point Number:   1          Path Number:   1
   CHANGE IN THE REACTION COORDINATE =    0.30905
   NET REACTION COORDINATE UP TO THIS POINT =    0.30905
  # OF POINTS ALONG THE PATH =   1
  # OF STEPS =   1

 Calculating another point on the path.
 IRC-IRC-IRC-IRC-IRC-IRC-IRC-IRC-IRC-IRC-IRC-IRC-IRC-IRC-IRC-IRC-IRC-IRC
 Symmetry turned off by external request.
 Stoichiometry    C23H18F9N4O13S3Sc
 Framework group  C1[X(C23H18F9N4O13S3Sc)]
 Deg. of freedom   207
 Full point group                 C1      NOp   1
                          Input orientation:                          
 ---------------------------------------------------------------------
 Center     Atomic      Atomic             Coordinates (Angstroms)
 Number     Number       Type             X           Y           Z
 ---------------------------------------------------------------------
      1          6           0       -1.833808   -0.190062    1.151707
      2          6           0       -1.462655   -0.010927   -0.252678
      3          6           0       -0.706529   -0.260484    2.082438
      4          8           0        0.469013   -0.526644    1.751217
      5          8           0       -0.316456    0.105396   -0.719055
      6          8           0       -2.481462   -0.092347   -1.062935
      7          8           0       -1.011579   -0.168368    3.349390
      8          6           0       -2.231336   -0.073296   -2.473207
      9          6           0        0.050797   -0.317613    4.303284
     10          1           0       -3.173338   -0.352626   -2.955988
     11          1           0       -1.436192   -0.790210   -2.721206
     12          1           0       -1.930021    0.935492   -2.783339
     13          1           0       -0.402301   -0.164137    5.287189
     14          1           0        0.829308    0.433451    4.114021
     15          1           0        0.482693   -1.324146    4.230219
     16          8           0        3.413059   -0.895971    0.893175
     17          8           0        2.351489   -0.344861   -1.812559
     18          8           0        0.403182    2.086934    1.051179
     19         16           0        0.924012    2.988779   -0.010278
     20         16           0        4.021217    0.236568    1.662317
     21         16           0        2.048296   -1.815093   -1.773997
     22          8           0        1.808150    2.125586   -0.861980
     23          8           0        1.429391    4.282825    0.367758
     24          8           0        2.975598    1.303358    1.603121
     25          8           0        4.641518   -0.051893    2.926276
     26          8           0        1.412483   -2.038984   -0.449455
     27          8           0        1.406931   -2.386617   -2.933524
     28          6           0        3.729672   -2.625190   -1.662007
     29          6           0        5.330739    0.848935    0.523333
     30          6           0       -0.551981    3.325048   -1.112938
     31          9           0        3.757380   -3.431107   -0.620110
     32          9           0        4.669629   -1.708464   -1.543745
     33          9           0        3.935450   -3.322274   -2.763635
     34          9           0        4.766679    1.132292   -0.638099
     35          9           0        6.243022   -0.088400    0.360500
     36          9           0        5.885376    1.933029    1.027131
     37          9           0       -1.640635    2.782666   -0.582116
     38          9           0       -0.349331    2.803629   -2.307251
     39          9           0       -0.725316    4.625275   -1.220494
     40          6           0       -4.513076    0.093291    1.174088
     41          6           0       -4.707925   -1.456207    1.222248
     42          6           0       -6.024139   -1.883087    0.700291
     43          6           0       -4.696913   -1.850345    2.655764
     44          6           0       -1.349135   -2.873874    0.397777
     45          6           0       -2.950417   -3.187335   -1.374747
     46          6           0       -1.612769   -3.327381   -0.850829
     47          1           0       -0.369022   -2.986754    0.861440
     48          1           0       -3.215674   -3.565516   -2.364458
     49          1           0       -0.845194   -3.823907   -1.446931
     50          7           0       -7.088355   -2.198420    0.375858
     51          7           0       -4.684813   -2.125923    3.779247
     52          7           0       -3.626420   -2.182928    0.539288
     53          7           0       -3.905494   -2.638846   -0.694912
     54          6           0       -2.367462   -2.126560    1.115600
     55          1           0       -2.378794   -2.191730    2.212203
     56          6           0       -3.100281    0.481106    1.690750
     57          1           0       -3.002961    1.571930    1.575722
     58          1           0       -3.101318    0.290788    2.772874
     59         21           0        1.602979    0.210713    0.171218
     60          1           0       -5.176084    0.455205    1.976932
     61          6           0       -4.998017    0.829462   -0.068903
     62          6           0       -5.128810    2.221391    0.057199
     63          6           0       -5.346076    0.238667   -1.288920
     64          6           0       -5.577233    3.003714   -1.006500
     65          1           0       -4.883951    2.701393    1.009625
     66          6           0       -5.805783    1.019522   -2.353668
     67          1           0       -5.233228   -0.836278   -1.439768
     68          6           0       -5.919643    2.403553   -2.220688
     69          1           0       -5.668392    4.085034   -0.881448
     70          1           0       -6.068507    0.534776   -3.296903
     71          1           0       -6.275768    3.010943   -3.055705
 ---------------------------------------------------------------------
 Rotational constants (GHZ):           0.0833739           0.0387132           0.0350931
 Basis read from rwf:  (5D, 7F)
   875 basis functions,  1564 primitive gaussians,   934 cartesian basis functions
   219 alpha electrons      219 beta electrons
       nuclear repulsion energy     10817.3356864286 Hartrees.
 NAtoms=   71 NActive=   71 NUniq=   71 SFac= 1.00D+00 NAtFMM=   60 NAOKFM=T Big=T
 Integral buffers will be    131072 words long.
 Raffenetti 2 integral format.
 Two-electron integral symmetry is turned off.
 Force inversion solution in PCM.
 ------------------------------------------------------------------------------
 Polarizable Continuum Model (PCM)
 =================================
 Model                : PCM.
 Atomic radii         : SMD-Coulomb.
 Polarization charges : Total charges.
 Charge compensation  : None.
 Solution method      : Matrix inversion.
 Cavity type          : VdW (van der Waals Surface) (Alpha=1.000).
 Cavity algorithm     : GePol (No added spheres)
                        Default sphere list used, NSphG=   71.
                        Lebedev-Laikov grids with approx.  5.0 points / Ang**2.
                        Smoothing algorithm: York/Karplus (Gamma=1.0000).
                        Polarization charges: spherical gaussians, with
                                              point-specific exponents (IZeta= 3).
                        Self-potential: point-specific (ISelfS= 7).
                        Self-field    : sphere-specific E.n sum rule (ISelfD= 2).
 1st derivatives      : Analytical E(r).r(x)/FMM algorithm (CHGder, D1EAlg=3).
                        Cavity 1st derivative terms included.
 Solvent              : DiChloroEthane, Eps=  10.125000 Eps(inf)=   2.087447
 ------------------------------------------------------------------------------
 ------------------------------------------------------------------------------
 Atomic radii for non-electrostatic terms: SMD-CDS.
 ------------------------------------------------------------------------------
 Nuclear repulsion after PCM non-electrostatic terms =    10817.3415492250 Hartrees.
 One-electron integrals computed using PRISM.
 NBasis=   875 RedAO= T EigKep=  1.86D-04  NBF=   875
 NBsUse=   875 1.00D-06 EigRej= -1.00D+00 NBFU=   875
 Initial guess from the checkpoint file:  "ts-min.chk"
 B after Tr=     0.000018   -0.000038   -0.000004
         Rot=    1.000000    0.000004    0.000002   -0.000002 Ang=   0.00 deg.
 ExpMin= 3.01D-02 ExpMax= 1.92D+05 ExpMxC= 1.85D+03 IAcc=3 IRadAn=         5 AccDes= 0.00D+00
 Harris functional with IExCor= 1009 and IRadAn=       5 diagonalized for initial guess.
 HarFok:  IExCor= 1009 AccDes= 0.00D+00 IRadAn=         5 IDoV= 1 UseB2=F ITyADJ=14
 ICtDFT=  3500011 ScaDFX=  1.000000  1.000000  1.000000  1.000000
 FoFCou: FMM=F IPFlag=           0 FMFlag=      100000 FMFlg1=        2001
         NFxFlg=           0 DoJE=T BraDBF=F KetDBF=T FulRan=T
         wScrn=  0.000000 ICntrl=       500 IOpCl=  0 I1Cent=   200000004 NGrid=           0
         NMat0=    1 NMatS0=      1 NMatT0=    0 NMatD0=    1 NMtDS0=    0 NMtDT0=    0
 Symmetry not used in FoFCou.
 Requested convergence on RMS density matrix=1.00D-08 within 128 cycles.
 Requested convergence on MAX density matrix=1.00D-06.
 Requested convergence on             energy=1.00D-06.
 No special actions if energy rises.
 Inv3:  Mode=1 IEnd=    69523788.
 Iteration    1 A*A^-1 deviation from unit magnitude is 6.88D-15 for   4782.
 Iteration    1 A*A^-1 deviation from orthogonality  is 3.80D-15 for   4805   4347.
 Iteration    1 A^-1*A deviation from unit magnitude is 6.88D-15 for   4782.
 Iteration    1 A^-1*A deviation from orthogonality  is 3.35D-15 for   4811   4389.
 Error on total polarization charges =  0.03142
 SCF Done:  E(RMN15) =  -4931.91658884     A.U. after   11 cycles
            NFock= 11  Conv=0.82D-08     -V/T= 2.0065
 SMD-CDS (non-electrostatic) energy       (kcal/mol) =       3.68
 (included in total energy above)
 DoSCS=F DFT=T ScalE2(SS,OS)=  1.000000  1.000000
 Range of M.O.s used for correlation:     1   875
 NBasis=   875 NAE=   219 NBE=   219 NFC=     0 NFV=     0
 NROrb=    875 NOA=   219 NOB=   219 NVA=   656 NVB=   656

 **** Warning!!: The largest alpha MO coefficient is  0.12875640D+02

 Symmetrizing basis deriv contribution to polar:
 IMax=3 JMax=2 DiffMx= 0.00D+00
 D1PCM: PCM CHGder 1st derivatives, ID1Alg=3 FixD1E=F DoIter=F DoCFld=F I1PDM=0.
 Calling FoFJK, ICntrl=      2147 FMM=T ISym2X=0 I1Cent= 0 IOpClX= 0 NMat=1 NMatS=1 NMatT=0.
 -------------------------------------------------------------------
 Center     Atomic                   Forces (Hartrees/Bohr)
 Number     Number              X              Y              Z
 -------------------------------------------------------------------
      1        6          -0.002648873   -0.008004203   -0.000220574
      2        6          -0.000305121   -0.001339497   -0.000948682
      3        6           0.000227603   -0.001752833    0.000796416
      4        8          -0.000475713    0.000089621    0.000134918
      5        8          -0.000714652    0.000679753    0.000658522
      6        8          -0.000096249   -0.000081288   -0.000408078
      7        8          -0.000020735   -0.000041744   -0.000254307
      8        6          -0.000108103    0.000108862   -0.000469825
      9        6           0.000022031    0.000308803    0.000261117
     10        1          -0.000014670    0.000001339   -0.000023762
     11        1          -0.000004674   -0.000003207   -0.000007012
     12        1          -0.000007208    0.000010687   -0.000016101
     13        1          -0.000022626    0.000027593    0.000007103
     14        1          -0.000011983    0.000035520    0.000004550
     15        1          -0.000012438    0.000016848   -0.000001954
     16        8          -0.000148777    0.000066134   -0.000030890
     17        8          -0.000100052    0.000175678    0.000086373
     18        8          -0.000238199   -0.000334238   -0.000113492
     19       16          -0.000196392   -0.000045071    0.000072535
     20       16           0.000124806    0.000023719    0.000040261
     21       16           0.000068532    0.000023827   -0.000019025
     22        8          -0.000110314   -0.000206008    0.000103490
     23        8          -0.000008460   -0.000145569    0.000151275
     24        8          -0.000189170   -0.000123532   -0.000102188
     25        8          -0.000065735    0.000007600    0.000027244
     26        8           0.000040639    0.000555898    0.000148600
     27        8          -0.000005108    0.000078929    0.000063212
     28        6           0.000041306   -0.000019471    0.000011455
     29        6           0.000043338    0.000026223   -0.000025660
     30        6          -0.000029190    0.000052561   -0.000046191
     31        9          -0.000030437    0.000040122    0.000023811
     32        9          -0.000020604    0.000037810    0.000020132
     33        9          -0.000035329    0.000037212    0.000018014
     34        9          -0.000052580   -0.000006343    0.000014713
     35        9          -0.000030930    0.000000319    0.000010561
     36        9          -0.000017690    0.000005048    0.000006610
     37        9           0.000017966   -0.000029506   -0.000023780
     38        9           0.000041115   -0.000020760    0.000024549
     39        9           0.000017694    0.000011855    0.000021698
     40        6          -0.000285863    0.000244357    0.000209299
     41        6           0.000167682    0.000158800   -0.000227325
     42        6           0.000036947    0.000105762    0.000011736
     43        6          -0.000097358    0.000051964   -0.000025097
     44        6           0.000686376    0.001330958   -0.000282571
     45        6          -0.000159048    0.000218066    0.000030060
     46        6           0.000032961   -0.000169350    0.000822283
     47        1           0.000040335   -0.000002461   -0.000034881
     48        1          -0.000011383   -0.000021036    0.000020575
     49        1          -0.000082266   -0.000180894    0.000190246
     50        7           0.000024671    0.000004694    0.000041134
     51        7           0.000042384   -0.000044471   -0.000018391
     52        7          -0.000394222    0.000845311    0.000138652
     53        7           0.000033841    0.000144427    0.000245418
     54        6           0.002518245    0.007720135    0.001180457
     55        1           0.000081279   -0.000150566   -0.000939700
     56        6           0.000202922   -0.000758280   -0.000509359
[...]
 Alpha  occ. eigenvalues --   -0.71304  -0.69030  -0.67885  -0.67597  -0.67524
 Alpha  occ. eigenvalues --   -0.67399  -0.67248  -0.67086  -0.67030  -0.65559
 Alpha  occ. eigenvalues --   -0.64956  -0.63583  -0.63003  -0.62736  -0.62015
 Alpha  occ. eigenvalues --   -0.61622  -0.61342  -0.61028  -0.59695  -0.59106
 Alpha  occ. eigenvalues --   -0.58186  -0.57169  -0.56994  -0.56535  -0.56383
 Alpha  occ. eigenvalues --   -0.56074  -0.55914  -0.55700  -0.55531  -0.55381
 Alpha  occ. eigenvalues --   -0.54916  -0.54841  -0.54703  -0.54638  -0.54150
 Alpha  occ. eigenvalues --   -0.54094  -0.53711  -0.53598  -0.53354  -0.53074
 Alpha  occ. eigenvalues --   -0.52618  -0.52578  -0.52269  -0.51699  -0.51325
 Alpha  occ. eigenvalues --   -0.51296  -0.51147  -0.51078  -0.50979  -0.50628
 Alpha  occ. eigenvalues --   -0.50126  -0.49877  -0.48905  -0.48805  -0.48413
 Alpha  occ. eigenvalues --   -0.48310  -0.47994  -0.47726  -0.47333  -0.46739
 Alpha  occ. eigenvalues --   -0.46680  -0.46204  -0.45980  -0.45739  -0.45274
 Alpha  occ. eigenvalues --   -0.45054  -0.44568  -0.44165  -0.44049  -0.43655
 Alpha  occ. eigenvalues --   -0.43239  -0.42680  -0.42547  -0.42177  -0.41749
 Alpha  occ. eigenvalues --   -0.41576  -0.41330  -0.40918  -0.40592  -0.40393
 Alpha  occ. eigenvalues --   -0.40071  -0.39753  -0.39629  -0.39409  -0.39171
 Alpha  occ. eigenvalues --   -0.38921  -0.38786  -0.38566  -0.38189  -0.38125
 Alpha  occ. eigenvalues --   -0.37800  -0.37572  -0.37331  -0.37071  -0.37022
 Alpha  occ. eigenvalues --   -0.36510  -0.36130  -0.35903  -0.35516  -0.35230
 Alpha  occ. eigenvalues --   -0.34927  -0.29294  -0.28658  -0.26027
 Alpha virt. eigenvalues --   -0.10086  -0.05832  -0.02634  -0.01658  -0.00292
 Alpha virt. eigenvalues --   -0.00193   0.00551   0.01474   0.01540   0.01801
 Alpha virt. eigenvalues --    0.03322   0.04437   0.05565   0.06022   0.06931
 Alpha virt. eigenvalues --    0.07959   0.08629   0.09039   0.09276   0.09745
 Alpha virt. eigenvalues --    0.09868   0.10155   0.10382   0.10455   0.10536
 Alpha virt. eigenvalues --    0.10768   0.11051   0.11269   0.11901   0.12161
 Alpha virt. eigenvalues --    0.12927   0.13298   0.13928   0.14093   0.14163
 Alpha virt. eigenvalues --    0.14782   0.14855   0.14993   0.15739   0.16049
 Alpha virt. eigenvalues --    0.16681   0.16967   0.17573   0.17888   0.18082
 Alpha virt. eigenvalues --    0.18368   0.18694   0.19033   0.19255   0.19788
 Alpha virt. eigenvalues --    0.20005   0.20714   0.20729   0.20962   0.21483
 Alpha virt. eigenvalues --    0.22145   0.22413   0.22799   0.23617   0.24098
 Alpha virt. eigenvalues --    0.24586   0.24735   0.24809   0.25352   0.25704
 Alpha virt. eigenvalues --    0.26083   0.26325   0.26587   0.26763   0.27193
 Alpha virt. eigenvalues --    0.27299   0.28188   0.28244   0.28723   0.29139
 Alpha virt. eigenvalues --    0.29273   0.30066   0.30330   0.30999   0.31538
 Alpha virt. eigenvalues --    0.32323   0.33227   0.33679   0.33917   0.34967
 Alpha virt. eigenvalues --    0.35468   0.35686   0.36586   0.37014   0.38066
 Alpha virt. eigenvalues --    0.38601   0.40041   0.40327   0.40823   0.41260
 Alpha virt. eigenvalues --    0.41411   0.42198   0.42881   0.43028   0.43349
 Alpha virt. eigenvalues --    0.44668   0.44843   0.44922   0.45569   0.46096
 Alpha virt. eigenvalues --    0.46440   0.46481   0.47093   0.47505   0.47866
 Alpha virt. eigenvalues --    0.48184   0.48541   0.48806   0.48920   0.49436
 Alpha virt. eigenvalues --    0.49666   0.49712   0.49987   0.50389   0.50558
 Alpha virt. eigenvalues --    0.50975   0.51213   0.51498   0.51642   0.52513
 Alpha virt. eigenvalues --    0.53310   0.53858   0.54156   0.54394   0.54600
 Alpha virt. eigenvalues --    0.55246   0.55745   0.56026   0.56650   0.57227
 Alpha virt. eigenvalues --    0.57339   0.58039   0.58646   0.59161   0.59457
 Alpha virt. eigenvalues --    0.60527   0.61058   0.61393   0.62214   0.62385
 Alpha virt. eigenvalues --    0.62971   0.63625   0.64026   0.64430   0.64960
 Alpha virt. eigenvalues --    0.65123   0.65414   0.66030   0.66125   0.66360
 Alpha virt. eigenvalues --    0.66746   0.67091   0.67328   0.67663   0.67808
 Alpha virt. eigenvalues --    0.67989   0.68362   0.68579   0.68673   0.69019
 Alpha virt. eigenvalues --    0.69352   0.69665   0.69761   0.70071   0.70177
 Alpha virt. eigenvalues --    0.70682   0.70981   0.71211   0.71480   0.71582
 Alpha virt. eigenvalues --    0.71921   0.72508   0.72691   0.73279   0.73628
 Alpha virt. eigenvalues --    0.73778   0.73954   0.74266   0.74745   0.74834
 Alpha virt. eigenvalues --    0.75541   0.76236   0.76771   0.76949   0.77050
 Alpha virt. eigenvalues --    0.77386   0.77795   0.78267   0.78591   0.79178
 Alpha virt. eigenvalues --    0.79836   0.80559   0.80742   0.81557   0.82060
 Alpha virt. eigenvalues --    0.82882   0.83508   0.84530   0.84748   0.85143
 Alpha virt. eigenvalues --    0.85764   0.86207   0.86927   0.87343   0.87758
 Alpha virt. eigenvalues --    0.88692   0.89121   0.89579   0.90672   0.90691
 Alpha virt. eigenvalues --    0.91355   0.91912   0.91948   0.92678   0.92955
 Alpha virt. eigenvalues --    0.93490   0.94287   0.94524   0.95244   0.95591
 Alpha virt. eigenvalues --    0.95878   0.97195   0.97740   0.98046   0.98680
 Alpha virt. eigenvalues --    0.98843   0.99706   1.00144   1.01039   1.01949
 Alpha virt. eigenvalues --    1.02505   1.02932   1.03214   1.03300   1.03993
 Alpha virt. eigenvalues --    1.04367   1.04780   1.04954   1.05205   1.06018
 Alpha virt. eigenvalues --    1.06947   1.08161   1.08531   1.09046   1.09274
 Alpha virt. eigenvalues --    1.09846   1.10369   1.10459   1.11306   1.11648
 Alpha virt. eigenvalues --    1.12087   1.12382   1.12972   1.13485   1.14134
 Alpha virt. eigenvalues --    1.14437   1.14950   1.15069   1.15818   1.16148
 Alpha virt. eigenvalues --    1.16566   1.16974   1.17444   1.17777   1.18194
 Alpha virt. eigenvalues --    1.18415   1.18698   1.19392   1.19817   1.20143
 Alpha virt. eigenvalues --    1.20760   1.20942   1.21398   1.21731   1.22223
 Alpha virt. eigenvalues --    1.22381   1.22837   1.23125   1.23553   1.24021
 Alpha virt. eigenvalues --    1.24441   1.24751   1.25449   1.25838   1.26624
 Alpha virt. eigenvalues --    1.27223   1.27751   1.28080   1.28381   1.28463
 Alpha virt. eigenvalues --    1.29280   1.29610   1.30018   1.30923   1.31435
 Alpha virt. eigenvalues --    1.31773   1.31805   1.32540   1.32783   1.33471
 Alpha virt. eigenvalues --    1.33841   1.34025   1.34645   1.35217   1.35706
 Alpha virt. eigenvalues --    1.35993   1.36779   1.37174   1.37831   1.38150
 Alpha virt. eigenvalues --    1.39226   1.39714   1.40139   1.40401   1.40775
 Alpha virt. eigenvalues --    1.41113   1.41847   1.42207   1.42978   1.43983
 Alpha virt. eigenvalues --    1.44175   1.45201   1.45480   1.45648   1.46208
 Alpha virt. eigenvalues --    1.46935   1.47416   1.48022   1.48712   1.49006
 Alpha virt. eigenvalues --    1.49570   1.49814   1.50521   1.52044   1.52048
 Alpha virt. eigenvalues --    1.53250   1.53356   1.53837   1.53923   1.54719
 Alpha virt. eigenvalues --    1.54996   1.55427   1.55826   1.56446   1.56712
 Alpha virt. eigenvalues --    1.57606   1.58510   1.59139   1.59319   1.60199
 Alpha virt. eigenvalues --    1.60368   1.61514   1.61720   1.62240   1.62934
 Alpha virt. eigenvalues --    1.63706   1.63747   1.64532   1.65217   1.65741
 Alpha virt. eigenvalues --    1.65967   1.66256   1.67009   1.67437   1.68134
 Alpha virt. eigenvalues --    1.68505   1.69247   1.69683   1.69834   1.70387
 Alpha virt. eigenvalues --    1.70623   1.71560   1.71869   1.72316   1.72825
 Alpha virt. eigenvalues --    1.73635   1.73676   1.74317   1.74493   1.74594
 Alpha virt. eigenvalues --    1.75501   1.75709   1.76064   1.76862   1.76998
 Alpha virt. eigenvalues --    1.77738   1.77828   1.78219   1.79080   1.79579
 Alpha virt. eigenvalues --    1.79996   1.80411   1.80891   1.81790   1.82583
 Alpha virt. eigenvalues --    1.83011   1.83302   1.83825   1.84066   1.84751
 Alpha virt. eigenvalues --    1.85566   1.86151   1.86547   1.86785   1.86813
 Alpha virt. eigenvalues --    1.86985   1.87512   1.87745   1.88665   1.89160
 Alpha virt. eigenvalues --    1.90367   1.91244   1.91323   1.91621   1.92205
 Alpha virt. eigenvalues --    1.92633   1.92820   1.93260   1.93304   1.93820
 Alpha virt. eigenvalues --    1.94144   1.94850   1.95628   1.96268   1.96688
 Alpha virt. eigenvalues --    1.97026   1.97458   1.97883   1.98300   1.98697
 Alpha virt. eigenvalues --    1.99572   1.99884   2.00124   2.00739   2.01196
 Alpha virt. eigenvalues --    2.01710   2.02397   2.03094   2.03574   2.03786
 Alpha virt. eigenvalues --    2.04567   2.05480   2.05758   2.06895   2.07603
 Alpha virt. eigenvalues --    2.08135   2.08556   2.09269   2.09703   2.10951
 Alpha virt. eigenvalues --    2.12326   2.13206   2.13797   2.14311   2.15425
 Alpha virt. eigenvalues --    2.16019   2.16706   2.17325   2.17822   2.18721
 Alpha virt. eigenvalues --    2.19350   2.21053   2.21533   2.21908   2.22273
 Alpha virt. eigenvalues --    2.22543   2.23407   2.23693   2.23758   2.24791
 Alpha virt. eigenvalues --    2.24966   2.25314   2.25883   2.26774   2.28214
 Alpha virt. eigenvalues --    2.29128   2.30487   2.30798   2.31811   2.31960
 Alpha virt. eigenvalues --    2.34217   2.34644   2.35236   2.35880   2.36775
 Alpha virt. eigenvalues --    2.38564   2.39453   2.39875   2.41637   2.43628
 Alpha virt. eigenvalues --    2.44552   2.46549   2.47418   2.49066   2.52251
 Alpha virt. eigenvalues --    2.54745   2.55581   2.56027   2.57144   2.57445
 Alpha virt. eigenvalues --    2.58184   2.58769   2.59395   2.60244   2.60626
 Alpha virt. eigenvalues --    2.60856   2.61464   2.61677   2.62233   2.62743
 Alpha virt. eigenvalues --    2.62906   2.63007   2.63357   2.64321   2.64734
 Alpha virt. eigenvalues --    2.65631   2.65778   2.65910   2.66787   2.67326
 Alpha virt. eigenvalues --    2.67842   2.69134   2.69549   2.69894   2.70295
 Alpha virt. eigenvalues --    2.71459   2.71907   2.72533   2.72750   2.73458
 Alpha virt. eigenvalues --    2.74050   2.74346   2.75850   2.77576   2.78155
 Alpha virt. eigenvalues --    2.78890   2.78989   2.79276   2.79594   2.79630
 Alpha virt. eigenvalues --    2.80486   2.80720   2.81157   2.82343   2.82582
 Alpha virt. eigenvalues --    2.82840   2.83023   2.83468   2.83925   2.85021
 Alpha virt. eigenvalues --    2.85733   2.86036   2.87068   2.87261   2.88545
 Alpha virt. eigenvalues --    2.89889   2.90808   2.90944   2.92507   2.92823
 Alpha virt. eigenvalues --    2.93514   2.94342   2.95008   2.95626   2.95785
 Alpha virt. eigenvalues --    2.96300   2.96581   2.97327   2.97867   2.98420
 Alpha virt. eigenvalues --    2.98645   2.98879   2.98938   2.99335   2.99852
 Alpha virt. eigenvalues --    3.00289   3.00505   3.01283   3.02168   3.02833
 Alpha virt. eigenvalues --    3.03134   3.03239   3.03292   3.03312   3.03354
 Alpha virt. eigenvalues --    3.03448   3.03574   3.03747   3.03836   3.03923
 Alpha virt. eigenvalues --    3.04084   3.04242   3.04581   3.04920   3.05380
 Alpha virt. eigenvalues --    3.05759   3.05970   3.06525   3.07425   3.07891
 Alpha virt. eigenvalues --    3.08933   3.11646   3.12698   3.13645   3.15103
 Alpha virt. eigenvalues --    3.15614   3.16011   3.16074   3.16397   3.16814
 Alpha virt. eigenvalues --    3.16994   3.20730   3.21100   3.22121   3.22733
 Alpha virt. eigenvalues --    3.23947   3.32556   3.34681   3.35202   3.35991
 Alpha virt. eigenvalues --    3.37694   3.37882   3.38547   3.38655   3.38769
 Alpha virt. eigenvalues --    3.39168   3.39863   3.40573   3.41169   3.45868
 Alpha virt. eigenvalues --    3.51163   3.51754   3.52395   3.52771   3.53373
 Alpha virt. eigenvalues --    3.53487   3.53962   3.54245   3.54626   3.56258
 Alpha virt. eigenvalues --    3.61276   3.67692   3.67890   3.68441   3.70009
 Alpha virt. eigenvalues --    3.80955   3.81428   3.82762   3.83258   3.83699
 Alpha virt. eigenvalues --    3.84169
          Condensed to atoms (all electrons):
 Mulliken charges:
               1
     1  C   -0.193711
     2  C    0.216485
     3  C    0.256664
     4  O   -0.321569
     5  O   -0.292210
     6  O   -0.278461
     7  O   -0.280819
     8  C    0.181199
     9  C    0.161562
    10  H    0.045486
    11  H    0.038171
    12  H    0.050715
    13  H    0.058424
    14  H    0.063386
    15  H    0.054028
    16  O   -0.436501
    17  O   -0.438728
    18  O   -0.424588
    19  S    0.884091
    20  S    0.867902
    21  S    0.861955
    22  O   -0.443206
    23  O   -0.407098
    24  O   -0.425718
    25  O   -0.396716
    26  O   -0.440042
    27  O   -0.419691
    28  C    0.435562
    29  C    0.440994
    30  C    0.422664
    31  F   -0.122758
    32  F   -0.116050
    33  F   -0.128884
    34  F   -0.104577
    35  F   -0.123081
    36  F   -0.123473
    37  F   -0.122947
    38  F   -0.115652
    39  F   -0.122445
    40  C    0.069031
    41  C   -0.078838
    42  C   -0.180226
    43  C   -0.199771
    44  C    0.082878
    45  C    0.068750
    46  C    0.073711
    47  H    0.089901
    48  H    0.093058
    49  H    0.070127
    50  N    0.152563
    51  N    0.145383
    52  N   -0.093109
    53  N    0.011956
    54  C    0.210695
    55  H    0.095940
    56  C    0.191339
    57  H    0.045811
    58  H    0.022838
    59  Sc   0.262768
    60  H    0.083224
    61  C    0.066737
    62  C   -0.054940
    63  C   -0.020634
    64  C    0.006108
    65  H    0.011873
    66  C   -0.001396
    67  H   -0.017368
    68  C    0.005892
    69  H    0.009792
    70  H    0.005306
    71  H    0.010240
 Sum of Mulliken charges =  -0.00000
 Mulliken charges with hydrogens summed into heavy atoms:
               1
     1  C   -0.193711
     2  C    0.216485
     3  C    0.256664
     4  O   -0.321569
     5  O   -0.292210
     6  O   -0.278461
     7  O   -0.280819
     8  C    0.315571
     9  C    0.337400
    16  O   -0.436501
    17  O   -0.438728
    18  O   -0.424588
    19  S    0.884091
    20  S    0.867902
    21  S    0.861955
    22  O   -0.443206
    23  O   -0.407098
    24  O   -0.425718
    25  O   -0.396716
    26  O   -0.440042
    27  O   -0.419691
    28  C    0.435562
    29  C    0.440994
    30  C    0.422664
    31  F   -0.122758
    32  F   -0.116050
    33  F   -0.128884
    34  F   -0.104577
    35  F   -0.123081
    36  F   -0.123473
    37  F   -0.122947
    38  F   -0.115652
    39  F   -0.122445
    40  C    0.152255
    41  C   -0.078838
    42  C   -0.180226
    43  C   -0.199771
    44  C    0.172778
    45  C    0.161808
    46  C    0.143838
    50  N    0.152563
    51  N    0.145383
    52  N   -0.093109
    53  N    0.011956
    54  C    0.306634
    56  C    0.259988
    59  Sc   0.262768
    61  C    0.066737
    62  C   -0.043067
    63  C   -0.038002
    64  C    0.015899
    66  C    0.003910
    68  C    0.016132
 APT charges:
               1
     1  C   -0.201281
     2  C   -0.282479
     3  C   -0.180909
     4  O   -0.387996
     5  O   -0.413124
     6  O    0.062559
     7  O    0.067784
     8  C   -0.654415
     9  C   -0.793933
    10  H    0.750096
    11  H    0.027165
    12  H    0.217074
    13  H    0.973094
    14  H    0.133353
    15  H    0.175756
    16  O   -0.676441
    17  O   -0.384129
    18  O   -0.664325
    19  S   -0.020556
    20  S   -0.079313
    21  S    0.121730
    22  O   -0.458927
    23  O    0.771942
    24  O   -0.644452
    25  O    0.800548
    26  O   -0.571859
    27  O    0.185348
    28  C   -0.720110
    29  C   -0.667647
    30  C   -0.517896
    31  F    0.134605
    32  F    0.196533
    33  F    0.668109
    34  F   -0.304138
    35  F    0.595202
    36  F    0.655807
    37  F   -0.178300
    38  F    0.001942
    39  F    0.746461
    40  C   -0.416515
    41  C   -1.680798
    42  C   -3.123697
    43  C   -1.790761
    44  C   -0.561903
    45  C   -0.701054
    46  C   -0.169158
    47  H    0.162571
    48  H    0.872122
    49  H    0.383268
    50  N    4.247666
    51  N    2.384105
    52  N    0.064845
    53  N    0.286055
    54  C   -0.076939
    55  H    0.300785
    56  C   -0.638313
    57  H    0.353261
    58  H    0.469279
    59  Sc   0.314893
    60  H    0.900564
    61  C   -0.982796
    62  C   -0.429972
    63  C   -0.272330
    64  C   -0.491840
    65  H    0.245855
    66  C   -0.423627
    67  H    0.071789
    68  C   -0.611259
    69  H    0.906558
    70  H    0.741695
    71  H    1.182777
 Sum of APT charges =  -0.00000
 APT charges with hydrogens summed into heavy atoms:
               1
     1  C   -0.201281
     2  C   -0.282479
     3  C   -0.180909
     4  O   -0.387996
     5  O   -0.413124
     6  O    0.062559
     7  O    0.067784
     8  C    0.339920
     9  C    0.488270
    16  O   -0.676441
    17  O   -0.384129
    18  O   -0.664325
    19  S   -0.020556
    20  S   -0.079313
    21  S    0.121730
    22  O   -0.458927
    23  O    0.771942
    24  O   -0.644452
    25  O    0.800548
    26  O   -0.571859
    27  O    0.185348
    28  C   -0.720110
    29  C   -0.667647
    30  C   -0.517896
    31  F    0.134605
    32  F    0.196533
    33  F    0.668109
    34  F   -0.304138
    35  F    0.595202
    36  F    0.655807
    37  F   -0.178300
    38  F    0.001942
    39  F    0.746461
    40  C    0.484049
    41  C   -1.680798
    42  C   -3.123697
    43  C   -1.790761
    44  C   -0.399333
    45  C    0.171067
    46  C    0.214110
    50  N    4.247666
    51  N    2.384105
    52  N    0.064845
    53  N    0.286055
    54  C    0.223846
    56  C    0.184227
    59  Sc   0.314893
    61  C   -0.982796
    62  C   -0.184116
    63  C   -0.200541
    64  C    0.414717
    66  C    0.318067
    68  C    0.571518
 Electronic spatial extent (au):  <R**2>=          31441.8517
 Charge=             -0.0000 electrons
 Dipole moment (field-independent basis, Debye):
    X=            -15.3459    Y=             -9.7062    Z=             -0.9006  Tot=             18.1801
 Quadrupole moment (field-independent basis, Debye-Ang):
   XX=           -358.9538   YY=           -322.9584   ZZ=           -321.9993
   XY=            -12.4472   XZ=              3.0481   YZ=              0.7574
 Traceless Quadrupole moment (field-independent basis, Debye-Ang):
   XX=            -24.3166   YY=             11.6788   ZZ=             12.6379
   XY=            -12.4472   XZ=              3.0481   YZ=              0.7574
 Octapole moment (field-independent basis, Debye-Ang**2):
  XXX=            505.9552  YYY=            -96.6433  ZZZ=            -70.7733  XYY=             16.7209
  XXY=            138.5253  XXZ=           -125.1685  XZZ=             39.1098  YZZ=             32.1117
  YYZ=            -58.1358  XYZ=            -39.3475
 Hexadecapole moment (field-independent basis, Debye-Ang**3):
 XXXX=         -27424.3614 YYYY=          -8721.9581 ZZZZ=          -5548.1678 XXXY=          -1414.6692
 XXXZ=           -149.3589 YYYX=           -582.9152 YYYZ=            131.5118 ZZZX=            259.7320
 ZZZY=            166.3154 XXYY=          -5661.2514 XXZZ=          -5208.8437 YYZZ=          -2396.2666
 XXYZ=            146.5929 YYXZ=            115.7856 ZZXY=           -214.1584
 N-N= 1.075068041025D+04 E-N=-3.312958741677D+04  KE= 4.900248645335D+03
  Exact polarizability:   0.000   0.000   0.000   0.000   0.000   0.000
 Approx polarizability: 473.664 -14.735 454.376  40.006  16.503 543.749

 This type of calculation cannot be archived.


 THERE ARE PEOPLE SO ADDICTED TO EXAGERATING THEY
 CAN'T TELL THE TRUTH WITHOUT LYING. -- FORTUNE COOKIE
 Job cpu time:       7 days 15 hours  9 minutes  7.2 seconds.
 Elapsed time:       0 days  7 hours 48 minutes 29.5 seconds.
 File lengths (MBytes):  RWF=   6736 Int=      0 D2E=      0 Chk=    132 Scr=      8
 Normal termination of Gaussian 16 at Thu Feb 13 14:22:07 2025.
