 Entering Gaussian System, Link 0=/sysapps/ubuntu-applications/gaussian-new/avx/g16//g16
 Input=irc-maj.in
 Output=irc-maj.log
 Initial command:
 /sysapps/ubuntu-applications/gaussian-new/avx/g16/l1.exe "/data/temp-scratch/selhajj1/7677916/Gau-1432411.inp" -scrdir="/data/temp-scratch/selhajj1/7677916/"
 Entering Link 1 = /sysapps/ubuntu-applications/gaussian-new/avx/g16/l1.exe PID=   1432413.
  
 Copyright (c) 1988,1990,1992,1993,1995,1998,2003,2009,2016,
            Gaussian, Inc.  All Rights Reserved.
  
 This is part of the Gaussian(R) 16 program.  It is based on
 the Gaussian(R) 09 system (copyright 2009, Gaussian, Inc.),
 the Gaussian(R) 03 system (copyright 2003, Gaussian, Inc.),
 the Gaussian(R) 98 system (copyright 1998, Gaussian, Inc.),
 the Gaussian(R) 94 system (copyright 1995, Gaussian, Inc.),
 the Gaussian 92(TM) system (copyright 1992, Gaussian, Inc.),
 the Gaussian 90(TM) system (copyright 1990, Gaussian, Inc.),
 the Gaussian 88(TM) system (copyright 1988, Gaussian, Inc.),
 the Gaussian 86(TM) system (copyright 1986, Carnegie Mellon
 University), and the Gaussian 82(TM) system (copyright 1983,
 Carnegie Mellon University). Gaussian is a federally registered
 trademark of Gaussian, Inc.
  
 This software contains proprietary and confidential information,
 including trade secrets, belonging to Gaussian, Inc.
  
 This software is provided under written license and may be
 used, copied, transmitted, or stored only in accord with that
 written license.
  
 The following legend is applicable only to US Government
 contracts under FAR:
  
                    RESTRICTED RIGHTS LEGEND
  
 Use, reproduction and disclosure by the US Government is
 subject to restrictions as set forth in subparagraphs (a)
 and (c) of the Commercial Computer Software - Restricted
 Rights clause in FAR 52.227-19.
  
 Gaussian, Inc.
 340 Quinnipiac St., Bldg. 40, Wallingford CT 06492
  
  
 ---------------------------------------------------------------
 Warning -- This program may not be used in any manner that
 competes with the business of Gaussian, Inc. or will provide
 assistance to any competitor of Gaussian, Inc.  The licensee
 of this program is prohibited from giving any competitor of
 Gaussian, Inc. access to this program.  By using this program,
 the user acknowledges that Gaussian, Inc. is engaged in the
 business of creating and licensing software in the field of
 computational chemistry and represents and warrants to the
 licensee that it is not a competitor of Gaussian, Inc. and that
 it will not use this program in any manner prohibited above.
 ---------------------------------------------------------------
  

 Cite this work as:
 Gaussian 16, Revision A.03,
 M. J. Frisch, G. W. Trucks, H. B. Schlegel, G. E. Scuseria, 
 M. A. Robb, J. R. Cheeseman, G. Scalmani, V. Barone, 
 G. A. Petersson, H. Nakatsuji, X. Li, M. Caricato, A. V. Marenich, 
 J. Bloino, B. G. Janesko, R. Gomperts, B. Mennucci, H. P. Hratchian, 
 J. V. Ortiz, A. F. Izmaylov, J. L. Sonnenberg, D. Williams-Young, 
 F. Ding, F. Lipparini, F. Egidi, J. Goings, B. Peng, A. Petrone, 
 T. Henderson, D. Ranasinghe, V. G. Zakrzewski, J. Gao, N. Rega, 
 G. Zheng, W. Liang, M. Hada, M. Ehara, K. Toyota, R. Fukuda, 
 J. Hasegawa, M. Ishida, T. Nakajima, Y. Honda, O. Kitao, H. Nakai, 
 T. Vreven, K. Throssell, J. A. Montgomery, Jr., J. E. Peralta, 
 F. Ogliaro, M. J. Bearpark, J. J. Heyd, E. N. Brothers, K. N. Kudin, 
 V. N. Staroverov, T. A. Keith, R. Kobayashi, J. Normand, 
 K. Raghavachari, A. P. Rendell, J. C. Burant, S. S. Iyengar, 
 J. Tomasi, M. Cossi, J. M. Millam, M. Klene, C. Adamo, R. Cammi, 
 J. W. Ochterski, R. L. Martin, K. Morokuma, O. Farkas, 
 J. B. Foresman, and D. J. Fox, Gaussian, Inc., Wallingford CT, 2016.
 
 ******************************************
 Gaussian 16:  ES64L-G16RevA.03 25-Dec-2016
                11-Mar-2025 
 ******************************************
 %chk=ts3.chk
 %mem=616Gb
 %nprocshared=24
 Will use up to   24 processors via shared memory.
 ----------------------------------------------------------------------
 # irc=(maxpoints=100,recorrect=never,calcfc,maxcycles=500,nogradstop) 
 MN15/gen scrf=(smd,solvent=DiChloroEthane)
 ----------------------------------------------------------------------
 1/6=500,10=4,18=10,26=3,38=1,42=100,44=3,108=-1,131=1,172=1/1,23;
 2/12=2,17=6,18=5,29=1,40=1/2;
 3/5=7,11=2,25=1,30=1,70=32201,71=2,72=10,74=-73,140=1/1,2,3;
 4//1;
 5/5=2,38=5,53=10/2;
 8/6=4,10=90,11=11/1;
 11/6=1,8=1,9=11,15=111,16=1/1,2,10;
 10/6=1,13=1/2;
 6/7=2,8=2,9=2,10=2,28=1/1;
 7/10=1,18=20,25=1/1,2,3,16;
 1/6=500,10=4,18=10,26=3,42=100,44=3,108=-1,131=1/23(2);
 2/29=1/2;
 99/5=20/99;
 2/29=1/2;
 3/5=7,6=1,11=2,25=1,30=1,70=32205,71=2,72=10,74=-73,82=7,140=1/1,2,3;
 4/5=5,16=3,69=1/1;
 5/5=2,38=5,53=10/2;
 8/6=4,10=90,11=11/1;
 11/6=1,8=1,9=11,15=111,16=1/1,2,10;
 10/6=1,13=1/2;
 7/10=1,18=20,25=1/1,2,3,16;
 1/6=500,18=10,26=3,42=100,44=3,108=-1,131=1/23(-8);
 2/29=1/2;
 6/7=2,8=2,9=2,10=2,19=2,28=1/1;
 99/5=20,9=1/99;
 -----------------------------------------------------------
 IRC for Going from i2 to i3, where we are forming bond 7-66
 -----------------------------------------------------------
 Symbolic Z-matrix:
 Charge =  0 Multiplicity = 1
 C                     5.62886  -0.71828   0.17718 
 C                     5.96184  -1.4034    1.35518 
 C                     7.15386  -2.12666   1.43829 
 C                     8.02478  -2.17748   0.34804 
 C                     7.70039  -1.49987  -0.82969 
 C                     6.5106   -0.77608  -0.91212 
 C                     1.75403   0.01412   0.53412 
 C                     1.16635   0.21061  -0.78173 
 C                     0.81211  -0.25396   1.60477 
 H                     5.29514  -1.37985   2.22049 
 H                     7.39964  -2.65568   2.3617 
 H                     8.9546   -2.74674   0.41516 
 H                     8.37386  -1.53648  -1.68876 
 H                     6.25511  -0.24511  -1.83368 
 O                    -0.39986   0.0687    1.57886 
 O                    -0.04717   0.21832  -1.06313 
 O                     2.04244   0.47163  -1.72424 
 O                     1.31956  -0.75195   2.70371 
 C                     1.55392   0.8052   -3.02856 
 C                     0.42758  -0.98533   3.80231 
 H                     2.42754   1.11804  -3.60946 
 H                     0.82037   1.62083  -2.95897 
 H                     1.08122  -0.07098  -3.49089 
 H                     1.02575  -1.4672    4.58157 
 H                    -0.39386  -1.64118   3.48361 
 H                     0.01839  -0.03362   4.16568 
 O                    -3.45823   0.45469   1.3636 
 O                    -2.89864   0.73173  -1.53832 
 O                    -0.41602  -2.23715   0.16358 
 S                    -1.14378  -2.8629   -0.971 
 S                    -3.8728   -0.88199   1.89849 
 S                    -2.64592   2.1559   -1.13767 
 O                    -2.16345  -1.84642  -1.39472 
 O                    -1.58396  -4.22781  -0.84301 
 O                    -2.83123  -1.81281   1.36977 
 O                    -4.24314  -0.97597   3.28425 
 O                    -1.78986   2.06318   0.07395 
 O                    -2.24176   3.07311  -2.17579 
 C                    -4.30698   2.76072  -0.53005 
 C                    -5.36328  -1.27734   0.89368 
 C                     0.08618  -2.85775  -2.37993 
 F                    -4.17302   3.26064   0.68156 
 F                    -5.17386   1.76769  -0.51136 
 F                    -4.73777   3.70105  -1.34972 
 F                    -5.03324  -1.19777  -0.3839 
 F                    -6.31672  -0.40777   1.16377 
 F                    -5.7765   -2.49741   1.17269 
 F                     0.26999  -4.09046  -2.80285 
 F                     1.24253  -2.36357  -1.9587 
 F                    -0.36564  -2.11138  -3.36986 
 C                     4.35691   0.09675   0.03892 
 H                     4.19939   0.29123  -1.0311 
 C                     4.5288    1.53038   0.64151 
 C                     5.68991   2.20757   0.03058 
 C                     4.7476    1.46866   2.1031 
 C                     1.00745   2.78145   0.72457 
 C                     2.25045   3.58965  -1.17229 
 C                     1.0307    3.52513  -0.41127 
 H                     0.1222    2.70155   1.35421 
 H                     2.31258   4.1647   -2.09867 
 H                     0.15219   4.0803   -0.74426 
 N                     6.64114   2.68054  -0.42621 
 N                     4.9036    1.37728   3.24572 
 N                     3.30712   2.3051    0.35831 
 N                     3.33938   2.99413  -0.79277 
 C                     2.17042   1.99832   1.05989 
 H                     2.34042   1.70071   2.1 
 Sc                   -1.78318  -0.26796   0.0658 
 C                     3.13525  -0.62919   0.63332 
 H                     3.10209  -1.62236   0.15602 
 H                     3.32375  -0.80901   1.7012 
 
 IRC-IRC-IRC-IRC-IRC-IRC-IRC-IRC-IRC-IRC-IRC-IRC-IRC-IRC-IRC-IRC-IRC-IRC
 ------------------------------------------------------------------------
 INPUT DATA FOR L123
 ------------------------------------------------------------------------
 GENERAL PARAMETERS:
 Follow reaction path in both directions.
 Maximum points per path      = 100
 Step size                    =   0.100 bohr
 Integration scheme           = HPC                                 
    Redo corrector integration= Never                               
    DWI Weight Power          =  2
    DWI will use Hessian update vectors when possible.
 Initial Hessian              = CalcFC
 Hessian evaluation           = All updating
 Hessian updating method      = Bofill                              
 ------------------------------------------------------------------------
 IRC-IRC-IRC-IRC-IRC-IRC-IRC-IRC-IRC-IRC-IRC-IRC-IRC-IRC-IRC-IRC-IRC-IRC
 Symmetry turned off by external request.
 Stoichiometry    C23H18F9N4O13S3Sc
 Framework group  C1[X(C23H18F9N4O13S3Sc)]
 Deg. of freedom   207
 Full point group                 C1      NOp   1
                          Input orientation:                          
 ---------------------------------------------------------------------
 Center     Atomic      Atomic             Coordinates (Angstroms)
 Number     Number       Type             X           Y           Z
 ---------------------------------------------------------------------
      1          6           0        5.628859   -0.718277    0.177178
      2          6           0        5.961835   -1.403400    1.355175
      3          6           0        7.153858   -2.126658    1.438291
      4          6           0        8.024777   -2.177481    0.348035
      5          6           0        7.700387   -1.499871   -0.829686
      6          6           0        6.510602   -0.776083   -0.912115
      7          6           0        1.754033    0.014123    0.534117
      8          6           0        1.166349    0.210608   -0.781731
      9          6           0        0.812114   -0.253961    1.604766
     10          1           0        5.295145   -1.379849    2.220494
     11          1           0        7.399636   -2.655683    2.361698
     12          1           0        8.954599   -2.746743    0.415156
     13          1           0        8.373856   -1.536481   -1.688762
     14          1           0        6.255110   -0.245107   -1.833681
     15          8           0       -0.399861    0.068699    1.578859
     16          8           0       -0.047171    0.218319   -1.063126
     17          8           0        2.042445    0.471629   -1.724238
     18          8           0        1.319561   -0.751950    2.703710
     19          6           0        1.553917    0.805201   -3.028559
     20          6           0        0.427577   -0.985330    3.802313
     21          1           0        2.427535    1.118037   -3.609460
     22          1           0        0.820368    1.620825   -2.958967
     23          1           0        1.081219   -0.070981   -3.490889
     24          1           0        1.025750   -1.467197    4.581573
     25          1           0       -0.393857   -1.641179    3.483612
     26          1           0        0.018389   -0.033616    4.165678
     27          8           0       -3.458232    0.454691    1.363601
     28          8           0       -2.898643    0.731726   -1.538317
     29          8           0       -0.416016   -2.237148    0.163578
     30         16           0       -1.143778   -2.862900   -0.970998
     31         16           0       -3.872803   -0.881987    1.898489
     32         16           0       -2.645915    2.155895   -1.137670
     33          8           0       -2.163447   -1.846416   -1.394716
     34          8           0       -1.583955   -4.227810   -0.843010
     35          8           0       -2.831227   -1.812812    1.369767
     36          8           0       -4.243135   -0.975971    3.284254
     37          8           0       -1.789857    2.063176    0.073949
     38          8           0       -2.241761    3.073109   -2.175788
     39          6           0       -4.306984    2.760716   -0.530045
     40          6           0       -5.363280   -1.277336    0.893683
     41          6           0        0.086178   -2.857752   -2.379931
     42          9           0       -4.173021    3.260640    0.681557
     43          9           0       -5.173857    1.767689   -0.511362
     44          9           0       -4.737773    3.701049   -1.349723
     45          9           0       -5.033236   -1.197768   -0.383898
     46          9           0       -6.316725   -0.407768    1.163774
     47          9           0       -5.776495   -2.497405    1.172694
     48          9           0        0.269994   -4.090459   -2.802854
     49          9           0        1.242527   -2.363566   -1.958703
     50          9           0       -0.365644   -2.111375   -3.369859
     51          6           0        4.356909    0.096746    0.038917
     52          1           0        4.199390    0.291233   -1.031103
     53          6           0        4.528799    1.530384    0.641511
     54          6           0        5.689907    2.207571    0.030575
     55          6           0        4.747597    1.468657    2.103098
     56          6           0        1.007453    2.781450    0.724572
     57          6           0        2.250448    3.589652   -1.172285
     58          6           0        1.030697    3.525133   -0.411266
     59          1           0        0.122202    2.701554    1.354205
     60          1           0        2.312576    4.164702   -2.098671
     61          1           0        0.152186    4.080296   -0.744255
     62          7           0        6.641141    2.680540   -0.426211
     63          7           0        4.903601    1.377283    3.245716
     64          7           0        3.307117    2.305095    0.358313
     65          7           0        3.339378    2.994128   -0.792774
     66          6           0        2.170416    1.998318    1.059893
     67          1           0        2.340419    1.700708    2.100005
     68         21           0       -1.783181   -0.267961    0.065804
     69          6           0        3.135247   -0.629191    0.633324
     70          1           0        3.102089   -1.622358    0.156024
     71          1           0        3.323750   -0.809014    1.701204
 ---------------------------------------------------------------------
 Rotational constants (GHZ):           0.0854897           0.0351134           0.0317347
 General basis read from cards:  (5D, 7F)
   875 basis functions,  1564 primitive gaussians,   934 cartesian basis functions
   219 alpha electrons      219 beta electrons
       nuclear repulsion energy     10657.6062218201 Hartrees.
 NAtoms=   71 NActive=   71 NUniq=   71 SFac= 1.00D+00 NAtFMM=   60 NAOKFM=T Big=T
 Integral buffers will be    131072 words long.
 Raffenetti 2 integral format.
 Two-electron integral symmetry is turned off.
 Force inversion solution in PCM.
 ------------------------------------------------------------------------------
 Polarizable Continuum Model (PCM)
 =================================
 Model                : PCM.
 Atomic radii         : SMD-Coulomb.
 Polarization charges : Total charges.
 Charge compensation  : None.
 Solution method      : Matrix inversion.
 Cavity type          : VdW (van der Waals Surface) (Alpha=1.000).
 Cavity algorithm     : GePol (No added spheres)
                        Default sphere list used, NSphG=   71.
                        Lebedev-Laikov grids with approx.  5.0 points / Ang**2.
                        Smoothing algorithm: York/Karplus (Gamma=1.0000).
                        Polarization charges: spherical gaussians, with
                                              point-specific exponents (IZeta= 3).
                        Self-potential: point-specific (ISelfS= 7).
                        Self-field    : sphere-specific E.n sum rule (ISelfD= 2).
 1st derivatives      : Analytical E(r).r(x)/FMM algorithm (CHGder, D1EAlg=3).
                        Cavity 1st derivative terms included.
 2nd derivatives      : Analytical E(r).r(xy)/FMM algorithm (CHGder, D2EAlg=3).
                        Cavity 2nd derivative terms included.
 Solvent              : DiChloroEthane, Eps=  10.125000 Eps(inf)=   2.087447
 ------------------------------------------------------------------------------
 ------------------------------------------------------------------------------
 Atomic radii for non-electrostatic terms: SMD-CDS.
 ------------------------------------------------------------------------------
 Nuclear repulsion after PCM non-electrostatic terms =    10657.6120936278 Hartrees.
 One-electron integrals computed using PRISM.
 NBasis=   875 RedAO= T EigKep=  2.19D-04  NBF=   875
 NBsUse=   875 1.00D-06 EigRej= -1.00D+00 NBFU=   875
 ExpMin= 3.01D-02 ExpMax= 1.92D+05 ExpMxC= 1.85D+03 IAcc=3 IRadAn=         5 AccDes= 0.00D+00
 Harris functional with IExCor= 1009 and IRadAn=       5 diagonalized for initial guess.
 HarFok:  IExCor= 1009 AccDes= 0.00D+00 IRadAn=         5 IDoV= 1 UseB2=F ITyADJ=14
 ICtDFT=  3500011 ScaDFX=  1.000000  1.000000  1.000000  1.000000
 FoFCou: FMM=F IPFlag=           0 FMFlag=      100000 FMFlg1=        2001
         NFxFlg=           0 DoJE=T BraDBF=F KetDBF=T FulRan=T
         wScrn=  0.000000 ICntrl=       500 IOpCl=  0 I1Cent=   200000004 NGrid=           0
         NMat0=    1 NMatS0=      1 NMatT0=    0 NMatD0=    1 NMtDS0=    0 NMtDT0=    0
 Symmetry not used in FoFCou.
 Requested convergence on RMS density matrix=1.00D-08 within 128 cycles.
 Requested convergence on MAX density matrix=1.00D-06.
 Requested convergence on             energy=1.00D-06.
 No special actions if energy rises.
 Inv3:  Mode=1 IEnd=    70334892.
 Iteration    1 A*A^-1 deviation from unit magnitude is 5.77D-15 for   4815.
 Iteration    1 A*A^-1 deviation from orthogonality  is 3.22D-15 for   4811    678.
 Iteration    1 A^-1*A deviation from unit magnitude is 5.77D-15 for   4815.
 Iteration    1 A^-1*A deviation from orthogonality  is 2.47D-15 for   3050   2975.
 Error on total polarization charges =  0.03242
 SCF Done:  E(RMN15) =  -4931.92651422     A.U. after   15 cycles
            NFock= 15  Conv=0.46D-08     -V/T= 2.0065
 SMD-CDS (non-electrostatic) energy       (kcal/mol) =       3.68
 (included in total energy above)
 DoSCS=F DFT=T ScalE2(SS,OS)=  1.000000  1.000000
 Range of M.O.s used for correlation:     1   875
 NBasis=   875 NAE=   219 NBE=   219 NFC=     0 NFV=     0
 NROrb=    875 NOA=   219 NOB=   219 NVA=   656 NVB=   656

 **** Warning!!: The largest alpha MO coefficient is  0.12004129D+02

 Symmetrizing basis deriv contribution to polar:
 IMax=3 JMax=2 DiffMx= 0.00D+00
 G2DrvN: will do    72 centers at a time, making    1 passes.
 Calling FoFCou, ICntrl=  3107 FMM=T I1Cent=   0 AccDes= 0.00D+00.
 NEqPCM:  Using equilibrium solvation (IEInf=0, Eps=  10.1250, EpsInf=   2.0874)
 G2PCM: DoFxE=T DoFxN=T DoGrad=T DoDP/DQ/DG/TGxP=FFFF NFrqRd=   0 IEInf=0 SqF1=F DoCFld=F IF1Alg=4.
 End of G2Drv F.D. properties file   721 does not exist.
 End of G2Drv F.D. properties file   722 does not exist.
 End of G2Drv F.D. properties file   788 does not exist.
          IDoAtm=11111111111111111111111111111111111111111111111111
          IDoAtm=111111111111111111111
 NEqPCM:  Using equilibrium solvation (IEInf=0, Eps=  10.1250, EpsInf=   2.0874)
          Differentiating once with respect to nuclear coordinates.
 CalDSu exits because no D1Ps are significant.
          There are   216 degrees of freedom in the 1st order CPHF.  IDoFFX=6 NUNeed=     0.
    213 vectors produced by pass  0 Test12= 1.44D-13 1.00D-09 XBig12= 1.75D-01 1.59D-01.
 AX will form    72 AO Fock derivatives at one time.
    210 vectors produced by pass  1 Test12= 1.44D-13 1.00D-09 XBig12= 7.01D-02 2.85D-02.
    210 vectors produced by pass  2 Test12= 1.44D-13 1.00D-09 XBig12= 1.01D-03 2.99D-03.
    210 vectors produced by pass  3 Test12= 1.44D-13 1.00D-09 XBig12= 1.28D-05 4.10D-04.
    210 vectors produced by pass  4 Test12= 1.44D-13 1.00D-09 XBig12= 1.28D-07 2.76D-05.
    210 vectors produced by pass  5 Test12= 1.44D-13 1.00D-09 XBig12= 6.87D-10 2.03D-06.
    175 vectors produced by pass  6 Test12= 1.44D-13 1.00D-09 XBig12= 2.81D-12 1.30D-07.
     46 vectors produced by pass  7 Test12= 1.44D-13 1.00D-09 XBig12= 1.11D-14 9.32D-09.
      4 vectors produced by pass  8 Test12= 1.44D-13 1.00D-09 XBig12= 1.33D-15 1.33D-09.
      2 vectors produced by pass  9 Test12= 1.44D-13 1.00D-09 XBig12= 2.27D-15 1.72D-09.
 InvSVY:  IOpt=1 It=  1 EMax= 7.77D-16
 Solved reduced A of dimension  1490 with   216 vectors.
 End of Minotr F.D. properties file   721 does not exist.
 End of Minotr F.D. properties file   722 does not exist.
 End of Minotr F.D. properties file   788 does not exist.

 **********************************************************************

            Population analysis using the SCF density.

 **********************************************************************

 Alpha  occ. eigenvalues -- -160.21195 -88.06476 -88.05887 -88.05747 -24.34513
 Alpha  occ. eigenvalues --  -24.34364 -24.34259 -24.34232 -24.34221 -24.34067
 Alpha  occ. eigenvalues --  -24.33684 -24.33648 -24.33621 -18.89651 -18.89545
 Alpha  occ. eigenvalues --  -18.85789 -18.85163 -18.85088 -18.84978 -18.84402
 Alpha  occ. eigenvalues --  -18.84378 -18.84122 -18.83960 -18.83842 -18.83382
 Alpha  occ. eigenvalues --  -18.83233 -17.19762 -14.49895 -14.49887 -14.49827
 Alpha  occ. eigenvalues --  -14.23766 -14.18160 -14.14689 -14.13787 -10.33780
 Alpha  occ. eigenvalues --  -10.33587 -10.33324 -10.23193 -10.22970 -10.21167
 Alpha  occ. eigenvalues --  -10.17709 -10.13757 -10.13192 -10.12434 -10.11724
 Alpha  occ. eigenvalues --  -10.11438 -10.10585 -10.10358 -10.10112 -10.10023
 Alpha  occ. eigenvalues --  -10.08591 -10.07602 -10.06379 -10.06267 -10.05986
 Alpha  occ. eigenvalues --  -10.05957 -10.05930  -7.96308  -7.95656  -7.95567
 Alpha  occ. eigenvalues --   -6.15824  -6.15780  -6.15649  -6.15175  -6.15121
 Alpha  occ. eigenvalues --   -6.15088  -6.15036  -6.15026  -6.14917  -2.16020
 Alpha  occ. eigenvalues --   -1.40644  -1.40491  -1.40329  -1.38065  -1.38032
 Alpha  occ. eigenvalues --   -1.37513  -1.28059  -1.28045  -1.27980  -1.27957
 Alpha  occ. eigenvalues --   -1.27465  -1.27391  -1.20871  -1.20026  -1.19781
 Alpha  occ. eigenvalues --   -1.18626  -1.17963  -1.13591  -1.08758  -1.07937
 Alpha  occ. eigenvalues --   -1.07369  -1.06928  -1.06804  -1.05692  -1.05019
 Alpha  occ. eigenvalues --   -1.04935  -0.99454  -0.96853  -0.95344  -0.91256
 Alpha  occ. eigenvalues --   -0.90557  -0.88207  -0.86161  -0.81466  -0.80474
 Alpha  occ. eigenvalues --   -0.80445  -0.79766  -0.79458  -0.78561  -0.77519
 Alpha  occ. eigenvalues --   -0.75598  -0.74832  -0.72991  -0.72401  -0.72124
 Alpha  occ. eigenvalues --   -0.71721  -0.69416  -0.68072  -0.67994  -0.67940
 Alpha  occ. eigenvalues --   -0.67869  -0.67429  -0.67394  -0.65953  -0.64838
 Alpha  occ. eigenvalues --   -0.64692  -0.63787  -0.63657  -0.63284  -0.62921
 Alpha  occ. eigenvalues --   -0.62579  -0.61769  -0.60892  -0.59710  -0.59455
 Alpha  occ. eigenvalues --   -0.58452  -0.57874  -0.57827  -0.57281  -0.57158
 Alpha  occ. eigenvalues --   -0.56629  -0.56147  -0.56025  -0.55572  -0.55401
 Alpha  occ. eigenvalues --   -0.55239  -0.55095  -0.55024  -0.54851  -0.54626
 Alpha  occ. eigenvalues --   -0.54534  -0.54088  -0.53969  -0.53836  -0.53474
 Alpha  occ. eigenvalues --   -0.53182  -0.53076  -0.52204  -0.52085  -0.52023
 Alpha  occ. eigenvalues --   -0.51841  -0.51741  -0.51453  -0.51327  -0.51008
 Alpha  occ. eigenvalues --   -0.50543  -0.49424  -0.49293  -0.48860  -0.48726
 Alpha  occ. eigenvalues --   -0.48617  -0.48435  -0.48270  -0.47800  -0.47256
 Alpha  occ. eigenvalues --   -0.46491  -0.46221  -0.45965  -0.45781  -0.45337
 Alpha  occ. eigenvalues --   -0.45317  -0.44945  -0.44533  -0.44246  -0.43398
 Alpha  occ. eigenvalues --   -0.43346  -0.42973  -0.42701  -0.42423  -0.42251
 Alpha  occ. eigenvalues --   -0.41806  -0.41487  -0.41110  -0.40938  -0.40847
 Alpha  occ. eigenvalues --   -0.40512  -0.40319  -0.40081  -0.39750  -0.39355
 Alpha  occ. eigenvalues --   -0.39298  -0.39056  -0.38791  -0.38638  -0.38510
 Alpha  occ. eigenvalues --   -0.38271  -0.38006  -0.37787  -0.37477  -0.37060
 Alpha  occ. eigenvalues --   -0.36966  -0.36909  -0.36636  -0.36286  -0.35968
 Alpha  occ. eigenvalues --   -0.35634  -0.29612  -0.29535  -0.26601
 Alpha virt. eigenvalues --   -0.07095  -0.04216  -0.02814  -0.01754  -0.01487
 Alpha virt. eigenvalues --    0.00280   0.00319   0.00736   0.01104   0.01221
 Alpha virt. eigenvalues --    0.01909   0.04589   0.04965   0.06493   0.06919
 Alpha virt. eigenvalues --    0.07246   0.08118   0.08873   0.08982   0.09192
 Alpha virt. eigenvalues --    0.09279   0.09674   0.09780   0.09931   0.10318
 Alpha virt. eigenvalues --    0.10533   0.10954   0.11264   0.11575   0.12385
 Alpha virt. eigenvalues --    0.12519   0.13217   0.13293   0.13753   0.13900
 Alpha virt. eigenvalues --    0.14649   0.14737   0.15265   0.15817   0.16087
 Alpha virt. eigenvalues --    0.16721   0.16966   0.17202   0.17502   0.17647
 Alpha virt. eigenvalues --    0.17889   0.18724   0.18913   0.19565   0.19684
 Alpha virt. eigenvalues --    0.20083   0.20173   0.20544   0.21506   0.21692
 Alpha virt. eigenvalues --    0.22394   0.22712   0.22917   0.23152   0.24288
 Alpha virt. eigenvalues --    0.24451   0.24687   0.25114   0.25438   0.25503
 Alpha virt. eigenvalues --    0.25598   0.25810   0.26349   0.26540   0.26954
 Alpha virt. eigenvalues --    0.27097   0.27674   0.28315   0.28426   0.28910
 Alpha virt. eigenvalues --    0.29407   0.29758   0.30147   0.30300   0.31996
 Alpha virt. eigenvalues --    0.32323   0.32800   0.33198   0.33926   0.34597
 Alpha virt. eigenvalues --    0.35649   0.35690   0.36262   0.37542   0.38922
 Alpha virt. eigenvalues --    0.39319   0.40102   0.40346   0.40835   0.41481
 Alpha virt. eigenvalues --    0.42139   0.42466   0.42695   0.43153   0.43404
 Alpha virt. eigenvalues --    0.43687   0.44346   0.44671   0.44924   0.45692
 Alpha virt. eigenvalues --    0.45999   0.46780   0.47032   0.47239   0.47699
 Alpha virt. eigenvalues --    0.47802   0.48354   0.48655   0.48727   0.49166
 Alpha virt. eigenvalues --    0.49221   0.49723   0.49788   0.50372   0.50507
 Alpha virt. eigenvalues --    0.51210   0.51414   0.51920   0.52170   0.52559
 Alpha virt. eigenvalues --    0.52838   0.53262   0.53706   0.54006   0.54875
 Alpha virt. eigenvalues --    0.55021   0.55375   0.55764   0.56171   0.56934
 Alpha virt. eigenvalues --    0.57479   0.57623   0.58612   0.59017   0.59273
 Alpha virt. eigenvalues --    0.59574   0.60106   0.60432   0.61100   0.61530
 Alpha virt. eigenvalues --    0.62249   0.62693   0.63269   0.63540   0.64077
 Alpha virt. eigenvalues --    0.64260   0.64609   0.65262   0.65948   0.66055
 Alpha virt. eigenvalues --    0.66400   0.66767   0.67027   0.67250   0.67596
 Alpha virt. eigenvalues --    0.67722   0.67990   0.68095   0.68340   0.68634
 Alpha virt. eigenvalues --    0.69358   0.69502   0.69853   0.70060   0.70244
 Alpha virt. eigenvalues --    0.70394   0.70620   0.70683   0.70986   0.71079
 Alpha virt. eigenvalues --    0.71568   0.71983   0.72620   0.72899   0.73027
 Alpha virt. eigenvalues --    0.73401   0.73954   0.74332   0.74575   0.74872
 Alpha virt. eigenvalues --    0.75438   0.75849   0.76328   0.76562   0.77010
 Alpha virt. eigenvalues --    0.77860   0.78122   0.78290   0.78858   0.79057
 Alpha virt. eigenvalues --    0.79473   0.79920   0.80477   0.80722   0.82026
 Alpha virt. eigenvalues --    0.83012   0.83213   0.84731   0.85205   0.85812
 Alpha virt. eigenvalues --    0.86406   0.86922   0.87298   0.87613   0.88336
 Alpha virt. eigenvalues --    0.88460   0.88653   0.89096   0.90314   0.90613
 Alpha virt. eigenvalues --    0.90802   0.91876   0.92437   0.92626   0.93086
 Alpha virt. eigenvalues --    0.93660   0.93922   0.94398   0.94917   0.95090
 Alpha virt. eigenvalues --    0.96099   0.96868   0.97351   0.97495   0.98214
 Alpha virt. eigenvalues --    0.98936   0.99286   0.99812   1.00173   1.01418
 Alpha virt. eigenvalues --    1.02000   1.02060   1.02596   1.03024   1.03941
 Alpha virt. eigenvalues --    1.04149   1.04887   1.05472   1.05752   1.07050
 Alpha virt. eigenvalues --    1.07310   1.07501   1.07792   1.08539   1.08775
 Alpha virt. eigenvalues --    1.09498   1.09787   1.10229   1.10638   1.11642
 Alpha virt. eigenvalues --    1.11774   1.12525   1.13157   1.13364   1.13721
 Alpha virt. eigenvalues --    1.13839   1.15221   1.15414   1.15708   1.16353
 Alpha virt. eigenvalues --    1.16823   1.17114   1.17260   1.18044   1.18369
 Alpha virt. eigenvalues --    1.18962   1.19110   1.19409   1.19644   1.20554
 Alpha virt. eigenvalues --    1.20740   1.21171   1.21630   1.21953   1.22484
 Alpha virt. eigenvalues --    1.22790   1.22841   1.23640   1.23983   1.24348
 Alpha virt. eigenvalues --    1.24770   1.25256   1.25490   1.25968   1.26242
 Alpha virt. eigenvalues --    1.26726   1.28031   1.28336   1.28849   1.29148
 Alpha virt. eigenvalues --    1.29350   1.30231   1.30689   1.31233   1.31542
 Alpha virt. eigenvalues --    1.32147   1.32504   1.32849   1.33456   1.33640
 Alpha virt. eigenvalues --    1.34018   1.34374   1.34888   1.35057   1.35706
 Alpha virt. eigenvalues --    1.36662   1.36843   1.37454   1.38021   1.38514
 Alpha virt. eigenvalues --    1.38812   1.39849   1.40267   1.40575   1.40766
 Alpha virt. eigenvalues --    1.41269   1.41617   1.42194   1.42526   1.43774
 Alpha virt. eigenvalues --    1.43931   1.44272   1.44668   1.45814   1.46395
 Alpha virt. eigenvalues --    1.46744   1.47829   1.47957   1.48358   1.48860
 Alpha virt. eigenvalues --    1.49630   1.50263   1.50883   1.51344   1.51823
 Alpha virt. eigenvalues --    1.52927   1.53153   1.53418   1.53766   1.54148
 Alpha virt. eigenvalues --    1.54574   1.55221   1.56057   1.56522   1.56746
 Alpha virt. eigenvalues --    1.57769   1.58339   1.58865   1.59474   1.59944
 Alpha virt. eigenvalues --    1.61004   1.61274   1.61647   1.62092   1.62381
 Alpha virt. eigenvalues --    1.62794   1.63514   1.64876   1.65500   1.66225
 Alpha virt. eigenvalues --    1.66527   1.66844   1.67711   1.68113   1.68363
 Alpha virt. eigenvalues --    1.68547   1.69159   1.70166   1.70710   1.71291
 Alpha virt. eigenvalues --    1.71627   1.71832   1.72185   1.72646   1.73148
 Alpha virt. eigenvalues --    1.73634   1.74313   1.74673   1.75082   1.75258
 Alpha virt. eigenvalues --    1.75609   1.75965   1.76379   1.76721   1.76950
 Alpha virt. eigenvalues --    1.77590   1.77936   1.78564   1.79145   1.79859
 Alpha virt. eigenvalues --    1.80931   1.81954   1.82221   1.82997   1.83786
 Alpha virt. eigenvalues --    1.83875   1.84190   1.84592   1.85381   1.85909
 Alpha virt. eigenvalues --    1.86163   1.86288   1.86782   1.87040   1.87610
 Alpha virt. eigenvalues --    1.88427   1.88735   1.89302   1.89627   1.90412
 Alpha virt. eigenvalues --    1.90993   1.91177   1.91449   1.91587   1.91796
 Alpha virt. eigenvalues --    1.92739   1.92774   1.93068   1.93701   1.93956
 Alpha virt. eigenvalues --    1.94577   1.94978   1.95567   1.95794   1.96516
 Alpha virt. eigenvalues --    1.96932   1.97196   1.97461   1.98342   1.98589
 Alpha virt. eigenvalues --    1.99098   1.99358   1.99750   1.99846   2.00751
 Alpha virt. eigenvalues --    2.01034   2.01922   2.02316   2.03444   2.04041
 Alpha virt. eigenvalues --    2.04377   2.05494   2.05981   2.06620   2.07309
 Alpha virt. eigenvalues --    2.08532   2.08937   2.09281   2.10191   2.11033
 Alpha virt. eigenvalues --    2.11910   2.12763   2.13435   2.13990   2.14066
 Alpha virt. eigenvalues --    2.14983   2.15713   2.16021   2.17875   2.18612
 Alpha virt. eigenvalues --    2.19698   2.20587   2.21049   2.22428   2.22708
 Alpha virt. eigenvalues --    2.22975   2.23158   2.23856   2.24189   2.24722
 Alpha virt. eigenvalues --    2.25225   2.26707   2.27301   2.28408   2.28902
 Alpha virt. eigenvalues --    2.29565   2.30772   2.31230   2.31764   2.33088
 Alpha virt. eigenvalues --    2.34169   2.35010   2.35760   2.36170   2.37382
 Alpha virt. eigenvalues --    2.38318   2.40179   2.41813   2.42372   2.43162
 Alpha virt. eigenvalues --    2.44739   2.45624   2.48395   2.51939   2.53098
 Alpha virt. eigenvalues --    2.53974   2.55092   2.56060   2.56219   2.57136
 Alpha virt. eigenvalues --    2.57920   2.58347   2.59430   2.59934   2.60218
 Alpha virt. eigenvalues --    2.60698   2.61032   2.61490   2.61965   2.62463
 Alpha virt. eigenvalues --    2.62632   2.62814   2.63708   2.64320   2.64666
 Alpha virt. eigenvalues --    2.64921   2.66034   2.66326   2.66578   2.67258
 Alpha virt. eigenvalues --    2.67867   2.68612   2.69011   2.69050   2.70348
 Alpha virt. eigenvalues --    2.70644   2.71428   2.72006   2.72585   2.73374
 Alpha virt. eigenvalues --    2.74176   2.74629   2.76542   2.77385   2.77739
 Alpha virt. eigenvalues --    2.78154   2.78522   2.79253   2.79578   2.79855
 Alpha virt. eigenvalues --    2.79973   2.80351   2.81322   2.81586   2.82163
 Alpha virt. eigenvalues --    2.82691   2.83301   2.83694   2.83813   2.84521
 Alpha virt. eigenvalues --    2.85587   2.86194   2.86729   2.87072   2.87764
 Alpha virt. eigenvalues --    2.90159   2.90887   2.91896   2.92587   2.92947
 Alpha virt. eigenvalues --    2.93257   2.93377   2.94522   2.95133   2.95418
 Alpha virt. eigenvalues --    2.96236   2.96671   2.96938   2.97423   2.98021
 Alpha virt. eigenvalues --    2.98187   2.98591   2.98996   2.99302   2.99687
 Alpha virt. eigenvalues --    3.00281   3.00750   3.01530   3.02143   3.02461
 Alpha virt. eigenvalues --    3.02566   3.02802   3.02847   3.02896   3.02939
 Alpha virt. eigenvalues --    3.03030   3.03130   3.03227   3.03345   3.03523
 Alpha virt. eigenvalues --    3.03735   3.03987   3.04201   3.04617   3.05011
 Alpha virt. eigenvalues --    3.05412   3.05673   3.05952   3.07147   3.07696
 Alpha virt. eigenvalues --    3.09026   3.12272   3.12868   3.13845   3.14832
 Alpha virt. eigenvalues --    3.15042   3.15766   3.15867   3.16190   3.16476
 Alpha virt. eigenvalues --    3.16794   3.18841   3.20608   3.21614   3.22516
 Alpha virt. eigenvalues --    3.22940   3.32414   3.34493   3.34941   3.35279
 Alpha virt. eigenvalues --    3.37148   3.37251   3.37728   3.38236   3.38319
 Alpha virt. eigenvalues --    3.38639   3.39264   3.39938   3.43528   3.43907
 Alpha virt. eigenvalues --    3.51101   3.51412   3.51974   3.52162   3.52646
 Alpha virt. eigenvalues --    3.53146   3.53339   3.54260   3.54583   3.55824
 Alpha virt. eigenvalues --    3.62305   3.66124   3.67345   3.67878   3.68452
 Alpha virt. eigenvalues --    3.80498   3.81272   3.82638   3.82905   3.83121
 Alpha virt. eigenvalues --    3.83899
          Condensed to atoms (all electrons):
 Mulliken charges:
               1
     1  C   -0.001063
     2  C   -0.009263
     3  C   -0.000411
     4  C    0.013303
     5  C    0.003284
     6  C   -0.005653
     7  C   -0.293614
     8  C    0.268160
     9  C    0.318360
    10  H    0.003591
    11  H    0.011495
    12  H    0.014587
    13  H    0.012169
    14  H    0.002930
    15  O   -0.298757
    16  O   -0.252186
    17  O   -0.254680
    18  O   -0.246035
    19  C    0.167622
    20  C    0.159100
    21  H    0.068849
    22  H    0.057201
    23  H    0.059792
    24  H    0.070266
    25  H    0.071485
    26  H    0.069028
    27  O   -0.433418
    28  O   -0.436365
    29  O   -0.435754
    30  S    0.891395
    31  S    0.866212
    32  S    0.867101
    33  O   -0.440740
    34  O   -0.397389
    35  O   -0.424090
    36  O   -0.387989
    37  O   -0.434646
    38  O   -0.406699
    39  C    0.442323
    40  C    0.446550
    41  C    0.425097
    42  F   -0.118612
    43  F   -0.113877
    44  F   -0.124708
    45  F   -0.103376
    46  F   -0.119315
    47  F   -0.119697
    48  F   -0.116286
    49  F   -0.124603
    50  F   -0.112755
    51  C    0.061502
    52  H    0.035216
    53  C   -0.108632
    54  C   -0.161922
    55  C   -0.187797
    56  C    0.075982
    57  C    0.025946
    58  C    0.034008
    59  H    0.072781
    60  H    0.070610
    61  H    0.047871
    62  N    0.142778
    63  N    0.127568
    64  N   -0.128229
    65  N    0.001816
    66  C    0.148495
    67  H    0.085773
    68  Sc   0.254525
    69  C    0.205645
    70  H    0.062100
    71  H    0.036045
 Sum of Mulliken charges =  -0.00000
 Mulliken charges with hydrogens summed into heavy atoms:
               1
     1  C   -0.001063
     2  C   -0.005671
     3  C    0.011084
     4  C    0.027889
     5  C    0.015454
     6  C   -0.002723
     7  C   -0.293614
     8  C    0.268160
     9  C    0.318360
    15  O   -0.298757
    16  O   -0.252186
    17  O   -0.254680
    18  O   -0.246035
    19  C    0.353464
    20  C    0.369879
    27  O   -0.433418
    28  O   -0.436365
    29  O   -0.435754
    30  S    0.891395
    31  S    0.866212
    32  S    0.867101
    33  O   -0.440740
    34  O   -0.397389
    35  O   -0.424090
    36  O   -0.387989
    37  O   -0.434646
    38  O   -0.406699
    39  C    0.442323
    40  C    0.446550
    41  C    0.425097
    42  F   -0.118612
    43  F   -0.113877
    44  F   -0.124708
    45  F   -0.103376
    46  F   -0.119315
    47  F   -0.119697
    48  F   -0.116286
    49  F   -0.124603
    50  F   -0.112755
    51  C    0.096718
    53  C   -0.108632
    54  C   -0.161922
    55  C   -0.187797
    56  C    0.148763
    57  C    0.096557
    58  C    0.081879
    62  N    0.142778
    63  N    0.127568
    64  N   -0.128229
    65  N    0.001816
    66  C    0.234268
    68  Sc   0.254525
    69  C    0.303790
 APT charges:
               1
     1  C   -1.399049
     2  C   -0.135322
     3  C   -0.478568
     4  C   -0.710625
     5  C   -0.561935
     6  C   -0.182387
     7  C   -0.199381
     8  C   -0.194967
     9  C   -0.151916
    10  H   -0.215574
    11  H    0.935553
    12  H    1.703062
    13  H    1.235438
    14  H    0.062091
    15  O   -0.344712
    16  O   -0.331710
    17  O    0.066143
    18  O    0.095685
    19  C   -0.727351
    20  C   -0.776277
    21  H    0.832853
    22  H    0.114186
    23  H    0.218689
    24  H    0.895730
    25  H    0.090113
    26  H    0.299305
    27  O   -0.610566
    28  O   -0.372897
    29  O   -0.729842
    30  S    0.015915
    31  S   -0.080619
    32  S    0.080858
    33  O   -0.386888
    34  O    0.734463
    35  O   -0.676784
    36  O    0.740699
    37  O   -0.635780
    38  O    0.304131
    39  C   -0.727351
    40  C   -0.676186
    41  C   -0.526823
    42  F    0.085761
    43  F    0.197247
    44  F    0.761528
    45  F   -0.262586
    46  F    0.645086
    47  F    0.627922
    48  F    0.739526
    49  F   -0.224674
    50  F    0.088206
    51  C   -0.176749
    52  H    0.135609
    53  C   -1.276310
    54  C   -2.991570
    55  C   -1.757484
    56  C   -0.618411
    57  C   -0.884988
    58  C   -0.066443
    59  H    0.140409
    60  H    0.882431
    61  H    0.449537
    62  N    4.046991
    63  N    2.116708
    64  N    0.032983
    65  N    0.226682
    66  C   -0.338950
    67  H    0.352171
    68  Sc   0.287722
    69  C   -0.511625
    70  H    0.271958
    71  H    0.429910
 Sum of APT charges =  -0.00000
 APT charges with hydrogens summed into heavy atoms:
               1
     1  C   -1.399049
     2  C   -0.350896
     3  C    0.456986
     4  C    0.992437
     5  C    0.673503
     6  C   -0.120297
     7  C   -0.199381
     8  C   -0.194967
     9  C   -0.151916
    15  O   -0.344712
    16  O   -0.331710
    17  O    0.066143
    18  O    0.095685
    19  C    0.438377
    20  C    0.508870
    27  O   -0.610566
    28  O   -0.372897
    29  O   -0.729842
    30  S    0.015915
    31  S   -0.080619
    32  S    0.080858
    33  O   -0.386888
    34  O    0.734463
    35  O   -0.676784
    36  O    0.740699
    37  O   -0.635780
    38  O    0.304131
    39  C   -0.727351
    40  C   -0.676186
    41  C   -0.526823
    42  F    0.085761
    43  F    0.197247
    44  F    0.761528
    45  F   -0.262586
    46  F    0.645086
    47  F    0.627922
    48  F    0.739526
    49  F   -0.224674
    50  F    0.088206
    51  C   -0.041140
    53  C   -1.276310
    54  C   -2.991570
    55  C   -1.757484
    56  C   -0.478002
    57  C   -0.002557
    58  C    0.383094
    62  N    4.046991
    63  N    2.116708
    64  N    0.032983
    65  N    0.226682
    66  C    0.013221
    68  Sc   0.287722
    69  C    0.190243
 Electronic spatial extent (au):  <R**2>=          33569.7608
 Charge=              0.0000 electrons
 Dipole moment (field-independent basis, Debye):
    X=             10.9812    Y=              4.4456    Z=             -0.1276  Tot=             11.8477
 Quadrupole moment (field-independent basis, Debye-Ang):
   XX=           -359.3165   YY=           -338.5383   ZZ=           -319.4689
   XY=            -26.4989   XZ=             -5.4276   YZ=             -4.5199
 Traceless Quadrupole moment (field-independent basis, Debye-Ang):
   XX=            -20.2086   YY=              0.5696   ZZ=             19.6390
   XY=            -26.4989   XZ=             -5.4276   YZ=             -4.5199
 Octapole moment (field-independent basis, Debye-Ang**2):
  XXX=           -348.8788  YYY=             79.3175  ZZZ=            -79.8351  XYY=            -59.1328
  XXY=           -219.5969  XXZ=            -85.6908  XZZ=            -25.7501  YZZ=            -38.0366
  YYZ=              1.9752  XYZ=            -36.0823
 Hexadecapole moment (field-independent basis, Debye-Ang**3):
 XXXX=         -28756.1932 YYYY=          -8552.0813 ZZZZ=          -4997.9881 XXXY=          -1960.0124
 XXXZ=           -160.1774 YYYX=           -337.2371 YYYZ=            -14.0597 ZZZX=           -251.9237
 ZZZY=            -51.4736 XXYY=          -6413.0995 XXZZ=          -5894.5488 YYZZ=          -2219.9465
 XXYZ=            -10.6496 YYXZ=            -29.8376 ZZXY=           -145.5043
 N-N= 1.065761209363D+04 E-N=-3.294113633940D+04  KE= 4.900213933059D+03
  Exact polarizability:   0.000   0.000   0.000   0.000   0.000   0.000
 Approx polarizability: 508.569 -10.721 471.918 -22.956 -63.957 508.973
 D2PCM: PCM CHGder 2nd derivatives, FixD1E=F FixD2E=F DoIter=F DoCFld=F I1PDM=0
 Calling FoFJK, ICntrl=    100147 FMM=F ISym2X=0 I1Cent= 0 IOpClX= 0 NMat=1 NMatS=1 NMatT=0.
 -------------------------------------------------------------------
 Center     Atomic                   Forces (Hartrees/Bohr)
 Number     Number              X              Y              Z
 -------------------------------------------------------------------
      1        6           0.000000640    0.000001964    0.000000073
      2        6          -0.000000317   -0.000000564   -0.000000028
      3        6           0.000000458   -0.000000248   -0.000001004
      4        6           0.000001671    0.000002233   -0.000001117
      5        6           0.000000629    0.000005472    0.000000028
      6        6           0.000001037    0.000004554    0.000000997
      7        6          -0.000001813   -0.000005228   -0.000000759
      8        6           0.000000270    0.000001925    0.000000524
      9        6           0.000001036   -0.000000792   -0.000001731
     10        1          -0.000000502   -0.000002556   -0.000000784
     11        1          -0.000000088   -0.000001848   -0.000002379
     12        1           0.000000825    0.000003119   -0.000001645
     13        1           0.000001793    0.000007044    0.000000559
     14        1           0.000001300    0.000006308    0.000002334
     15        8          -0.000002286   -0.000006243   -0.000000250
     16        8          -0.000000042    0.000003171   -0.000000078
     17        8           0.000001461    0.000004278    0.000000548
     18        8          -0.000000518   -0.000005302   -0.000001856
     19        6           0.000001220    0.000006716    0.000001904
     20        6          -0.000001934   -0.000008408   -0.000002944
     21        1           0.000001612    0.000008367    0.000002795
     22        1           0.000001102    0.000006183    0.000002871
     23        1           0.000002180    0.000007793   -0.000000223
     24        1          -0.000001763   -0.000009506   -0.000003335
     25        1          -0.000000839   -0.000007727   -0.000004373
     26        1          -0.000002188   -0.000009041   -0.000000799
     27        8          -0.000001116   -0.000004388   -0.000001903
     28        8           0.000000600    0.000001846   -0.000001262
     29        8           0.000000881   -0.000001031   -0.000005579
     30       16           0.000000836    0.000001012   -0.000008324
     31       16           0.000000020   -0.000006769   -0.000004871
     32       16          -0.000001269   -0.000000192    0.000002690
     33        8           0.000001760    0.000001466   -0.000005634
     34        8           0.000002390    0.000001002   -0.000010894
     35        8          -0.000000561   -0.000004142   -0.000005900
     36        8          -0.000001257   -0.000009146   -0.000005542
     37        8          -0.000001273   -0.000000897    0.000002173
     38        8           0.000000509    0.000004028    0.000004197
     39        6          -0.000000977   -0.000001476    0.000001886
     40        6           0.000000339   -0.000004644   -0.000006863
     41        6           0.000003026    0.000004546   -0.000006432
     42        9          -0.000001669   -0.000003536    0.000004108
     43        9          -0.000000430   -0.000001753    0.000000220
     44        9          -0.000000888    0.000000447    0.000004226
     45        9           0.000000928   -0.000001994   -0.000005906
     46        9          -0.000000532   -0.000005599   -0.000005185
     47        9           0.000000506   -0.000005392   -0.000009202
     48        9           0.000003736    0.000005606   -0.000009020
     49        9           0.000002112    0.000004664   -0.000005146
     50        9           0.000002688    0.000006281   -0.000005655
     51        6          -0.000000093    0.000001768    0.000001124
     52        1           0.000000456    0.000004044    0.000002291
     53        6           0.000000028    0.000001022    0.000005272
     54        6          -0.000001410    0.000002033    0.000007518
     55        6          -0.000002116   -0.000002714    0.000004501
     56        6          -0.000001163   -0.000002260    0.000005610
     57        6          -0.000000287    0.000002820    0.000008279
     58        6          -0.000001421    0.000000837    0.000006944
     59        1          -0.000002009   -0.000002940    0.000005149
     60        1          -0.000000607    0.000005295    0.000009152
     61        1          -0.000001563    0.000001312    0.000007673
     62        7          -0.000000958    0.000003603    0.000008456
     63        7          -0.000002229   -0.000004963    0.000005178
     64        7          -0.000001650   -0.000001065    0.000004541
     65        7          -0.000001312    0.000003217    0.000007262
     66        6          -0.000000718    0.000003568    0.000006375
     67        1          -0.000002410   -0.000005226    0.000004090
     68       21           0.000003180   -0.000000797   -0.000002025
     69        6           0.000000659    0.000000461   -0.000000220
     70        1           0.000000899    0.000000692   -0.000002245
     71        1          -0.000000580   -0.000002309   -0.000000435
 -------------------------------------------------------------------
 Cartesian Forces:  Max     0.000010894 RMS     0.000003809
 IRC-IRC-IRC-IRC-IRC-IRC-IRC-IRC-IRC-IRC-IRC-IRC-IRC-IRC-IRC-IRC-IRC-IRC
          ******** Start new reaction path calculation ********
 Supplied step size of   0.1000 bohr.
    Integration on MW PES will use step size of   0.3155 sqrt(amu)*bohr.
 Point Number:   0          Path Number:   1
 Calculating another point on the path.
 IRC-IRC-IRC-IRC-IRC-IRC-IRC-IRC-IRC-IRC-IRC-IRC-IRC-IRC-IRC-IRC-IRC-IRC
 Symmetry turned off by external request.
 Stoichiometry    C23H18F9N4O13S3Sc
 Framework group  C1[X(C23H18F9N4O13S3Sc)]
 Deg. of freedom   207
 Full point group                 C1      NOp   1
                          Input orientation:                          
 ---------------------------------------------------------------------
 Center     Atomic      Atomic             Coordinates (Angstroms)
 Number     Number       Type             X           Y           Z
 ---------------------------------------------------------------------
      1          6           0        5.733635   -0.712348    0.191041
      2          6           0        6.066811   -1.396866    1.369221
      3          6           0        7.259015   -2.119805    1.452417
      4          6           0        8.129898   -2.170566    0.362150
      5          6           0        7.805537   -1.492960   -0.815604
      6          6           0        6.615612   -0.769548   -0.898105
      7          6           0        1.866254    0.050284    0.555381
      8          6           0        1.271881    0.223532   -0.769687
      9          6           0        0.916390   -0.242203    1.623337
     10          1           0        5.400171   -1.373134    2.234603
     11          1           0        7.504997   -2.648635    2.375885
     12          1           0        9.059802   -2.739687    0.429326
     13          1           0        8.479173   -1.529343   -1.674561
     14          1           0        6.360035   -0.238443   -1.819573
     15          8           0       -0.293942    0.075941    1.593473
     16          8           0        0.059908    0.223370   -1.048273
     17          8           0        2.147159    0.478986   -1.710309
     18          8           0        1.424057   -0.745117    2.716496
     19          6           0        1.659179    0.812217   -3.015874
     20          6           0        0.532566   -0.979673    3.816865
     21          1           0        2.533175    1.125367   -3.595747
     22          1           0        0.925450    1.627475   -2.944898
     23          1           0        1.187183   -0.064695   -3.477236
     24          1           0        1.132005   -1.461329    4.595053
     25          1           0       -0.288497   -1.635416    3.497384
     26          1           0        0.124363   -0.027227    4.179128
     27          8           0       -3.352897    0.461554    1.377385
     28          8           0       -2.793341    0.738158   -1.524204
     29          8           0       -0.310407   -2.228965    0.177506
     30         16           0       -1.038561   -2.855881   -0.956947
     31         16           0       -3.768072   -0.875053    1.912591
     32         16           0       -2.541072    2.162925   -1.123679
     33          8           0       -2.058086   -1.838859   -1.380319
     34          8           0       -1.478895   -4.220483   -0.828461
     35          8           0       -2.725760   -1.805313    1.383459
     36          8           0       -4.137993   -0.969013    3.298293
     37          8           0       -1.684963    2.068565    0.087943
     38          8           0       -2.136824    3.079818   -2.161728
     39          6           0       -4.202212    2.767774   -0.515965
     40          6           0       -5.258551   -1.270433    0.907595
     41          6           0        0.191236   -2.850941   -2.366163
     42          9           0       -4.068011    3.267538    0.695566
     43          9           0       -5.068861    1.774591   -0.497346
     44          9           0       -4.632761    3.707959   -1.335717
     45          9           0       -4.928165   -1.190757   -0.369872
     46          9           0       -6.211707   -0.400776    1.177789
     47          9           0       -5.671518   -2.490418    1.186704
     48          9           0        0.374928   -4.083473   -2.788745
     49          9           0        1.347502   -2.356474   -1.944584
     50          9           0       -0.260725   -2.104358   -3.355708
     51          6           0        4.462990    0.103559    0.052770
     52          1           0        4.305669    0.298072   -1.017278
     53          6           0        4.632892    1.537384    0.654540
     54          6           0        5.794872    2.214311    0.044348
     55          6           0        4.852890    1.475597    2.116793
     56          6           0        1.110449    2.783964    0.736428
     57          6           0        2.356733    3.595281   -1.158884
     58          6           0        1.136046    3.531915   -0.393708
     59          1           0        0.226002    2.710126    1.368015
     60          1           0        2.417814    4.171845   -2.084464
     61          1           0        0.260657    4.095665   -0.720679
     62          7           0        6.746207    2.687507   -0.412084
     63          7           0        5.008452    1.384363    3.259555
     64          7           0        3.413358    2.310659    0.373732
     65          7           0        3.444106    3.001067   -0.779453
     66          6           0        2.267694    1.974200    1.064714
     67          1           0        2.443508    1.713406    2.115853
     68         21           0       -1.680410   -0.261029    0.079445
     69          6           0        3.239254   -0.617924    0.647240
     70          1           0        3.190991   -1.608633    0.166535
     71          1           0        3.428329   -0.802055    1.714264
 ---------------------------------------------------------------------
 Rotational constants (GHZ):           0.0855230           0.0351129           0.0317388
 Basis read from rwf:  (5D, 7F)
   875 basis functions,  1564 primitive gaussians,   934 cartesian basis functions
   219 alpha electrons      219 beta electrons
       nuclear repulsion energy     10658.7305872078 Hartrees.
 NAtoms=   71 NActive=   71 NUniq=   71 SFac= 1.00D+00 NAtFMM=   60 NAOKFM=T Big=T
 Integral buffers will be    131072 words long.
 Raffenetti 2 integral format.
 Two-electron integral symmetry is turned off.
 Force inversion solution in PCM.
 ------------------------------------------------------------------------------
 Polarizable Continuum Model (PCM)
 =================================
 Model                : PCM.
 Atomic radii         : SMD-Coulomb.
 Polarization charges : Total charges.
 Charge compensation  : None.
 Solution method      : Matrix inversion.
 Cavity type          : VdW (van der Waals Surface) (Alpha=1.000).
 Cavity algorithm     : GePol (No added spheres)
                        Default sphere list used, NSphG=   71.
                        Lebedev-Laikov grids with approx.  5.0 points / Ang**2.
                        Smoothing algorithm: York/Karplus (Gamma=1.0000).
                        Polarization charges: spherical gaussians, with
                                              point-specific exponents (IZeta= 3).
                        Self-potential: point-specific (ISelfS= 7).
                        Self-field    : sphere-specific E.n sum rule (ISelfD= 2).
 1st derivatives      : Analytical E(r).r(x)/FMM algorithm (CHGder, D1EAlg=3).
                        Cavity 1st derivative terms included.
 Solvent              : DiChloroEthane, Eps=  10.125000 Eps(inf)=   2.087447
 ------------------------------------------------------------------------------
 ------------------------------------------------------------------------------
 Atomic radii for non-electrostatic terms: SMD-CDS.
 ------------------------------------------------------------------------------
 Nuclear repulsion after PCM non-electrostatic terms =    10658.7364476917 Hartrees.
 One-electron integrals computed using PRISM.
 NBasis=   875 RedAO= T EigKep=  2.19D-04  NBF=   875
 NBsUse=   875 1.00D-06 EigRej= -1.00D+00 NBFU=   875
 Initial guess from the checkpoint file:  "ts3.chk"
 B after Tr=     0.198294    0.013258    0.026498
         Rot=    1.000000   -0.000004   -0.000000   -0.000000 Ang=  -0.00 deg.
 ExpMin= 3.01D-02 ExpMax= 1.92D+05 ExpMxC= 1.85D+03 IAcc=3 IRadAn=         5 AccDes= 0.00D+00
 Harris functional with IExCor= 1009 and IRadAn=       5 diagonalized for initial guess.
 HarFok:  IExCor= 1009 AccDes= 0.00D+00 IRadAn=         5 IDoV= 1 UseB2=F ITyADJ=14
 ICtDFT=  3500011 ScaDFX=  1.000000  1.000000  1.000000  1.000000
 FoFCou: FMM=F IPFlag=           0 FMFlag=      100000 FMFlg1=        2001
         NFxFlg=           0 DoJE=T BraDBF=F KetDBF=T FulRan=T
         wScrn=  0.000000 ICntrl=       500 IOpCl=  0 I1Cent=   200000004 NGrid=           0
         NMat0=    1 NMatS0=      1 NMatT0=    0 NMatD0=    1 NMtDS0=    0 NMtDT0=    0
 Symmetry not used in FoFCou.
 Requested convergence on RMS density matrix=1.00D-08 within 128 cycles.
 Requested convergence on MAX density matrix=1.00D-06.
 Requested convergence on             energy=1.00D-06.
 No special actions if energy rises.
 Inv3:  Mode=1 IEnd=    70509312.
 Iteration    1 A*A^-1 deviation from unit magnitude is 7.33D-15 for   4815.
 Iteration    1 A*A^-1 deviation from orthogonality  is 3.96D-15 for   4835   3953.
 Iteration    1 A^-1*A deviation from unit magnitude is 7.33D-15 for   4842.
 Iteration    1 A^-1*A deviation from orthogonality  is 1.93D-15 for   2398   2044.
 Error on total polarization charges =  0.03256
 SCF Done:  E(RMN15) =  -4931.92684411     A.U. after   11 cycles
            NFock= 11  Conv=0.95D-08     -V/T= 2.0065
 SMD-CDS (non-electrostatic) energy       (kcal/mol) =       3.68
 (included in total energy above)
 DoSCS=F DFT=T ScalE2(SS,OS)=  1.000000  1.000000
 Range of M.O.s used for correlation:     1   875
 NBasis=   875 NAE=   219 NBE=   219 NFC=     0 NFV=     0
 NROrb=    875 NOA=   219 NOB=   219 NVA=   656 NVB=   656

 **** Warning!!: The largest alpha MO coefficient is  0.11172531D+02

 Symmetrizing basis deriv contribution to polar:
 IMax=3 JMax=2 DiffMx= 0.00D+00
 D1PCM: PCM CHGder 1st derivatives, ID1Alg=3 FixD1E=F DoIter=F DoCFld=F I1PDM=0.
 Calling FoFJK, ICntrl=      2147 FMM=T ISym2X=0 I1Cent= 0 IOpClX= 0 NMat=1 NMatS=1 NMatT=0.
 -------------------------------------------------------------------
 Center     Atomic                   Forces (Hartrees/Bohr)
 Number     Number              X              Y              Z
 -------------------------------------------------------------------
      1        6          -0.000017038   -0.000156663   -0.000027665
      2        6           0.000009850   -0.000067100    0.000004820
      3        6           0.000030347   -0.000022215    0.000013728
      4        6           0.000027192   -0.000010459    0.000010882
      5        6           0.000031567   -0.000007873    0.000008329
      6        6           0.000011761   -0.000062192    0.000000440
      7        6           0.001209089    0.004456858    0.001057482
      8        6           0.000057649    0.000875080   -0.000339690
      9        6          -0.000147297    0.000674220    0.000737883
     10        1           0.000000379   -0.000005759    0.000000824
     11        1           0.000004978   -0.000001507   -0.000000346
     12        1           0.000003805    0.000003837    0.000000044
     13        1           0.000006161    0.000008604    0.000002657
     14        1           0.000001204    0.000002312    0.000003071
     15        8           0.000189143    0.000019654    0.000095269
     16        8           0.000387320   -0.000400057    0.000174372
     17        8          -0.000027755    0.000101966   -0.000005803
     18        8          -0.000071732   -0.000025305   -0.000250804
     19        6           0.000047870   -0.000006187   -0.000194061
     20        6           0.000002488   -0.000216862    0.000070434
     21        1           0.000011005    0.000013068   -0.000001009
     22        1          -0.000000936    0.000004509    0.000004558
     23        1           0.000013161    0.000000884   -0.000006393
     24        1           0.000014113   -0.000023705   -0.000009133
     25        1           0.000002742   -0.000024078   -0.000005724
     26        1           0.000010778   -0.000013295   -0.000009533
     27        8           0.000074151   -0.000029015   -0.000043673
     28        8           0.000069011   -0.000099686    0.000015588
     29        8           0.000106817    0.000212777   -0.000027432
     30       16           0.000108535    0.000019110    0.000003958
     31       16          -0.000078858   -0.000031509    0.000027684
     32       16          -0.000034290    0.000011660   -0.000000152
     33        8           0.000081460    0.000104913    0.000063484
     34        8           0.000022776    0.000060015    0.000087768
     35        8           0.000098568    0.000091117   -0.000066447
     36        8           0.000036822   -0.000016470    0.000001624
     37        8          -0.000008053   -0.000301579   -0.000002081
     38        8           0.000002754   -0.000045541    0.000013769
     39        6          -0.000024987    0.000008868    0.000012816
     40        6          -0.000028907   -0.000016788   -0.000021817
     41        6           0.000023368   -0.000017327   -0.000036974
     42        9           0.000015323   -0.000024387    0.000004875
     43        9           0.000013909   -0.000018253    0.000001455
     44        9           0.000019754   -0.000019068    0.000006369
     45        9           0.000029448    0.000002271   -0.000001831
     46        9           0.000018354   -0.000005712   -0.000004459
     47        9           0.000010180   -0.000005284   -0.000011369
     48        9           0.000000583    0.000004784    0.000009065
     49        9           0.000008000    0.000018780    0.000009356
     50        9          -0.000001963    0.000011289    0.000020307
     51        6           0.000154613   -0.000066911   -0.000031421
     52        1           0.000014617    0.000005713    0.000001057
     53        6          -0.000134859    0.000000598   -0.000151079
     54        6           0.000002658   -0.000037357   -0.000025975
     55        6           0.000053973   -0.000016023   -0.000056906
     56        6          -0.000304148   -0.000699634   -0.000281342
     57        6           0.000101909   -0.000157895   -0.000102126
     58        6           0.000079818   -0.000006408    0.000452570
     59        1          -0.000009154    0.000020961    0.000004348
     60        1           0.000001146    0.000007112    0.000008828
     61        1           0.000066734    0.000088581    0.000133110
     62        7           0.000024052   -0.000000936    0.000026731
     63        7          -0.000014064    0.000007141   -0.000018176
     64        7           0.000261487   -0.000115162    0.000181215
     65        7           0.000022666   -0.000118358   -0.000052879
     66        6          -0.001043551   -0.004856000   -0.000881476
     67        1          -0.000141768    0.000192039   -0.000362137
     68       21          -0.001135890   -0.000032206   -0.000215843
     69        6          -0.000164488    0.000595153    0.000001975
     70        1          -0.000195498    0.000156923   -0.000007336
     71        1          -0.000010852   -0.000000032   -0.000019655
 -------------------------------------------------------------------
 Cartesian Forces:  Max     0.004856000 RMS     0.000502522
 IRC-IRC-IRC-IRC-IRC-IRC-IRC-IRC-IRC-IRC-IRC-IRC-IRC-IRC-IRC-IRC-IRC-IRC
 Pt  1 Step number   1 out of a maximum of 500
 Modified Bulirsch-Stoer Extrapolation Cycles:
    EPS =    0.000010000000000
      PEZero:  N= 2 I= 1 D=  8.21D-04 Err=  1.60D-03
      PEZero:  N= 3 I= 2 D=  8.21D-04 Err=  1.06D-03
      PEZero:  N= 3 I= 1 D=  1.64D-03 Err=  4.18D-06
 Maximum DWI energy   std dev =  0.000002934 at pt    41
 Maximum DWI gradient std dev =  0.114326344 at pt     2
 Point Number:   1          Path Number:   1
   CHANGE IN THE REACTION COORDINATE =    0.31543
   NET REACTION COORDINATE UP TO THIS POINT =    0.31543
  # OF POINTS ALONG THE PATH =   1
  # OF STEPS =   1

 Calculating another point on the path.
 IRC-IRC-IRC-IRC-IRC-IRC-IRC-IRC-IRC-IRC-IRC-IRC-IRC-IRC-IRC-IRC-IRC-IRC
 Symmetry turned off by external request.
 Stoichiometry    C23H18F9N4O13S3Sc
 Framework group  C1[X(C23H18F9N4O13S3Sc)]
 Deg. of freedom   207
 Full point group                 C1      NOp   1
                          Input orientation:                          
 ---------------------------------------------------------------------
 Center     Atomic      Atomic             Coordinates (Angstroms)
 Number     Number       Type             X           Y           Z
 ---------------------------------------------------------------------
      1          6           0        5.733472   -0.713390    0.190876
      2          6           0        6.066853   -1.397332    1.369228
      3          6           0        7.259224   -2.119969    1.452479
      4          6           0        8.130078   -2.170615    0.362199
      5          6           0        7.805761   -1.492947   -0.815551
      6          6           0        6.615698   -0.769907   -0.898105
      7          6           0        1.873718    0.079686    0.562631
      8          6           0        1.272425    0.229424   -0.771732
      9          6           0        0.915718   -0.237569    1.627916
     10          1           0        5.400227   -1.373515    2.234648
     11          1           0        7.505395   -2.648694    2.375958
     12          1           0        9.060104   -2.739530    0.429401
     13          1           0        8.479642   -1.528884   -1.674341
     14          1           0        6.360107   -0.238478   -1.819386
     15          8           0       -0.292978    0.075974    1.593980
     16          8           0        0.061965    0.221347   -1.047435
     17          8           0        2.146919    0.479448   -1.710382
     18          8           0        1.423653   -0.745264    2.715294
     19          6           0        1.659499    0.812386   -3.017173
     20          6           0        0.532548   -0.981261    3.817305
     21          1           0        2.533866    1.126109   -3.595903
     22          1           0        0.925557    1.627270   -2.944686
     23          1           0        1.188259   -0.065167   -3.477749
     24          1           0        1.133179   -1.462889    4.594368
     25          1           0       -0.288040   -1.636954    3.496835
     26          1           0        0.125198   -0.028190    4.178563
     27          8           0       -3.352506    0.461411    1.377163
     28          8           0       -2.792979    0.737646   -1.524114
     29          8           0       -0.309857   -2.227891    0.177423
     30         16           0       -1.038324   -2.855878   -0.956971
     31         16           0       -3.768277   -0.875131    1.912659
     32         16           0       -2.541157    2.162987   -1.123687
     33          8           0       -2.057692   -1.838326   -1.380006
     34          8           0       -1.478790   -4.220189   -0.828052
     35          8           0       -2.725263   -1.804860    1.383126
     36          8           0       -4.137813   -0.969089    3.298296
     37          8           0       -1.684988    2.067061    0.087935
     38          8           0       -2.136817    3.079586   -2.161653
     39          6           0       -4.202371    2.767841   -0.515879
     40          6           0       -5.258752   -1.270536    0.907463
     41          6           0        0.191359   -2.851097   -2.366446
     42          9           0       -4.067947    3.267439    0.695586
     43          9           0       -5.068806    1.774513   -0.497341
     44          9           0       -4.632678    3.707886   -1.335696
     45          9           0       -4.928042   -1.190747   -0.369888
     46          9           0       -6.211630   -0.400799    1.177770
     47          9           0       -5.671475   -2.490440    1.186659
     48          9           0        0.374922   -4.083454   -2.788705
     49          9           0        1.347551   -2.356388   -1.944536
     50          9           0       -0.260732   -2.104310   -3.355620
     51          6           0        4.464054    0.103306    0.052634
     52          1           0        4.306830    0.297936   -1.017405
     53          6           0        4.632035    1.537405    0.653571
     54          6           0        5.794922    2.214042    0.044161
     55          6           0        4.853259    1.475492    2.116479
     56          6           0        1.108583    2.779481    0.734378
     57          6           0        2.357975    3.593923   -1.159508
     58          6           0        1.136498    3.531625   -0.390238
     59          1           0        0.224982    2.711827    1.367993
     60          1           0        2.418063    4.172024   -2.084248
     61          1           0        0.264193    4.103819   -0.711064
     62          7           0        6.746337    2.687501   -0.411929
     63          7           0        5.008367    1.384394    3.259392
     64          7           0        3.414756    2.309571    0.375324
     65          7           0        3.443848    3.000832   -0.780064
     66          6           0        2.260128    1.943141    1.055943
     67          1           0        2.440718    1.719596    2.117108
     68         21           0       -1.682426   -0.261096    0.079058
     69          6           0        3.238299   -0.613595    0.647337
     70          1           0        3.174948   -1.601703    0.163482
     71          1           0        3.427866   -0.801871    1.713513
 ---------------------------------------------------------------------
 Rotational constants (GHZ):           0.0855547           0.0351124           0.0317427
 Basis read from rwf:  (5D, 7F)
   875 basis functions,  1564 primitive gaussians,   934 cartesian basis functions
   219 alpha electrons      219 beta electrons
       nuclear repulsion energy     10659.8186256822 Hartrees.
 NAtoms=   71 NActive=   71 NUniq=   71 SFac= 1.00D+00 NAtFMM=   60 NAOKFM=T Big=T
 Integral buffers will be    131072 words long.
 Raffenetti 2 integral format.
 Two-electron integral symmetry is turned off.
 Force inversion solution in PCM.
 ------------------------------------------------------------------------------
 Polarizable Continuum Model (PCM)
 =================================
 Model                : PCM.
 Atomic radii         : SMD-Coulomb.
 Polarization charges : Total charges.
 Charge compensation  : None.
 Solution method      : Matrix inversion.
 Cavity type          : VdW (van der Waals Surface) (Alpha=1.000).
 Cavity algorithm     : GePol (No added spheres)
                        Default sphere list used, NSphG=   71.
                        Lebedev-Laikov grids with approx.  5.0 points / Ang**2.
                        Smoothing algorithm: York/Karplus (Gamma=1.0000).
                        Polarization charges: spherical gaussians, with
                                              point-specific exponents (IZeta= 3).
                        Self-potential: point-specific (ISelfS= 7).
                        Self-field    : sphere-specific E.n sum rule (ISelfD= 2).
 1st derivatives      : Analytical E(r).r(x)/FMM algorithm (CHGder, D1EAlg=3).
                        Cavity 1st derivative terms included.
 Solvent              : DiChloroEthane, Eps=  10.125000 Eps(inf)=   2.087447
 ------------------------------------------------------------------------------
 ------------------------------------------------------------------------------
 Atomic radii for non-electrostatic terms: SMD-CDS.
 ------------------------------------------------------------------------------
 Nuclear repulsion after PCM non-electrostatic terms =    10659.8244609960 Hartrees.
 One-electron integrals computed using PRISM.
 NBasis=   875 RedAO= T EigKep=  2.18D-04  NBF=   875
 NBsUse=   875 1.00D-06 EigRej= -1.00D+00 NBFU=   875
 Initial guess from the checkpoint file:  "ts3.chk"
 B after Tr=    -0.000009    0.000043    0.000013
         Rot=    1.000000   -0.000014    0.000002   -0.000001 Ang=  -0.00 deg.
 ExpMin= 3.01D-02 ExpMax= 1.92D+05 ExpMxC= 1.85D+03 IAcc=3 IRadAn=         5 AccDes= 0.00D+00
 Harris functional with IExCor= 1009 and IRadAn=       5 diagonalized for initial guess.
 HarFok:  IExCor= 1009 AccDes= 0.00D+00 IRadAn=         5 IDoV= 1 UseB2=F ITyADJ=14
 ICtDFT=  3500011 ScaDFX=  1.000000  1.000000  1.000000  1.000000
 FoFCou: FMM=F IPFlag=           0 FMFlag=      100000 FMFlg1=        2001
         NFxFlg=           0 DoJE=T BraDBF=F KetDBF=T FulRan=T
         wScrn=  0.000000 ICntrl=       500 IOpCl=  0 I1Cent=   200000004 NGrid=           0
         NMat0=    1 NMatS0=      1 NMatT0=    0 NMatD0=    1 NMtDS0=    0 NMtDT0=    0
 Symmetry not used in FoFCou.
 Requested convergence on RMS density matrix=1.00D-08 within 128 cycles.
 Requested convergence on MAX density matrix=1.00D-06.
 Requested convergence on             energy=1.00D-06.
 No special actions if energy rises.
 Inv3:  Mode=1 IEnd=    70334892.
 Iteration    1 A*A^-1 deviation from unit magnitude is 7.77D-15 for   4832.
 Iteration    1 A*A^-1 deviation from orthogonality  is 3.91D-15 for   4832   3918.
 Iteration    1 A^-1*A deviation from unit magnitude is 7.77D-15 for   4832.
 Iteration    1 A^-1*A deviation from orthogonality  is 2.22D-15 for   4840   4820.
 Error on total polarization charges =  0.03270
 SCF Done:  E(RMN15) =  -4931.92782903     A.U. after   11 cycles
            NFock= 11  Conv=0.86D-08     -V/T= 2.0065
 SMD-CDS (non-electrostatic) energy       (kcal/mol) =       3.66
 (included in total energy above)
 DoSCS=F DFT=T ScalE2(SS,OS)=  1.000000  1.000000
 Range of M.O.s used for correlation:     1   875
 NBasis=   875 NAE=   219 NBE=   219 NFC=     0 NFV=     0
 NROrb=    875 NOA=   219 NOB=   219 NVA=   656 NVB=   656

 **** Warning!!: The largest alpha MO coefficient is  0.10293436D+02

 Symmetrizing basis deriv contribution to polar:
 IMax=3 JMax=2 DiffMx= 0.00D+00
 D1PCM: PCM CHGder 1st derivatives, ID1Alg=3 FixD1E=F DoIter=F DoCFld=F I1PDM=0.
 Calling FoFJK, ICntrl=      2147 FMM=T ISym2X=0 I1Cent= 0 IOpClX= 0 NMat=1 NMatS=1 NMatT=0.
 -------------------------------------------------------------------
 Center     Atomic                   Forces (Hartrees/Bohr)
 Number     Number              X              Y              Z
 -------------------------------------------------------------------
      1        6          -0.000037681   -0.000318375   -0.000057702
      2        6           0.000013133   -0.000139734    0.000004883
      3        6           0.000061539   -0.000047866    0.000023760
      4        6           0.000055709   -0.000018984    0.000018328
      5        6           0.000067141   -0.000005721    0.000016220
      6        6           0.000026061   -0.000120344    0.000001016
      7        6           0.002321225    0.008727200    0.002077402
      8        6           0.000161843    0.001827434   -0.000514260
      9        6          -0.000170979    0.001466704    0.001405564
     10        1           0.000001333   -0.000005511    0.000001774
     11        1           0.000010170    0.000001334    0.000004679
     12        1           0.000006366    0.000000112    0.000004109
     13        1           0.000009460    0.000001546    0.000004724
     14        1          -0.000000750   -0.000009771    0.000001869
     15        8           0.000294926    0.000018081    0.000180252
     16        8           0.000736641   -0.000870237    0.000341735
     17        8          -0.000002001    0.000244387   -0.000104245
     18        8          -0.000122097   -0.000068872   -0.000429366
     19        6           0.000093624    0.000002298   -0.000401659
     20        6           0.000007112   -0.000483846    0.000115028
     21        1           0.000017632    0.000009150   -0.000011074
     22        1           0.000000307   -0.000012968    0.000000062
     23        1           0.000023579   -0.000019268   -0.000018942
     24        1           0.000032419   -0.000028246   -0.000009548
     25        1           0.000006641   -0.000031793    0.000001283
     26        1           0.000023986   -0.000006542   -0.000014070
     27        8           0.000147546   -0.000053026   -0.000082365
     28        8           0.000137086   -0.000196317    0.000033756
     29        8           0.000197376    0.000417291   -0.000049848
     30       16           0.000212424    0.000043298    0.000015728
     31       16          -0.000144592   -0.000059775    0.000045031
     32       16          -0.000064712    0.000016950    0.000000292
     33        8           0.000148846    0.000203694    0.000127982
     34        8           0.000038028    0.000108773    0.000180249
     35        8           0.000188367    0.000187775   -0.000122179
     36        8           0.000073352   -0.000021983    0.000010511
     37        8          -0.000007218   -0.000598655   -0.000004941
     38        8           0.000007440   -0.000091378    0.000022962
     39        6          -0.000043638    0.000017864    0.000024049
     40        6          -0.000055192   -0.000025842   -0.000031424
     41        6           0.000039722   -0.000035631   -0.000061662
     42        9           0.000032552   -0.000043977    0.000008750
     43        9           0.000027267   -0.000039238    0.000003860
     44        9           0.000034988   -0.000030168    0.000003998
     45        9           0.000059865    0.000008106   -0.000003396
     46        9           0.000033259   -0.000003559   -0.000004028
     47        9           0.000017039   -0.000009510   -0.000012476
     48        9          -0.000001382   -0.000007222    0.000020603
     49        9           0.000014494    0.000024634    0.000020946
     50        9          -0.000007911    0.000020661    0.000047140
     51        6           0.000312088   -0.000160898   -0.000059432
     52        1           0.000027083   -0.000002119   -0.000006441
     53        6          -0.000237001   -0.000005913   -0.000303443
     54        6          -0.000005667   -0.000088641   -0.000065483
     55        6           0.000102747   -0.000011921   -0.000111324
     56        6          -0.000564197   -0.001591239   -0.000536284
     57        6           0.000135721   -0.000349401   -0.000199939
     58        6           0.000210994    0.000003708    0.000851530
[...]
 Alpha  occ. eigenvalues --   -0.71365  -0.69438  -0.68133  -0.67619  -0.67563
 Alpha  occ. eigenvalues --   -0.67546  -0.67386  -0.67131  -0.67068  -0.65564
 Alpha  occ. eigenvalues --   -0.64384  -0.63738  -0.63563  -0.62958  -0.62129
 Alpha  occ. eigenvalues --   -0.61608  -0.61369  -0.61172  -0.59698  -0.59157
 Alpha  occ. eigenvalues --   -0.58247  -0.57214  -0.57074  -0.56582  -0.56488
 Alpha  occ. eigenvalues --   -0.56003  -0.55956  -0.55774  -0.55524  -0.55408
 Alpha  occ. eigenvalues --   -0.55062  -0.54885  -0.54737  -0.54674  -0.54278
 Alpha  occ. eigenvalues --   -0.54143  -0.53726  -0.53609  -0.53357  -0.53157
 Alpha  occ. eigenvalues --   -0.52806  -0.52689  -0.52564  -0.51713  -0.51609
 Alpha  occ. eigenvalues --   -0.51423  -0.51341  -0.51119  -0.51042  -0.50667
 Alpha  occ. eigenvalues --   -0.50313  -0.50017  -0.48939  -0.48931  -0.48823
 Alpha  occ. eigenvalues --   -0.48451  -0.48145  -0.47611  -0.47416  -0.46738
 Alpha  occ. eigenvalues --   -0.46625  -0.46223  -0.45939  -0.45662  -0.45181
 Alpha  occ. eigenvalues --   -0.44908  -0.44588  -0.44143  -0.43957  -0.43693
 Alpha  occ. eigenvalues --   -0.43213  -0.42731  -0.42466  -0.42250  -0.41932
 Alpha  occ. eigenvalues --   -0.41761  -0.41643  -0.41109  -0.40555  -0.40388
 Alpha  occ. eigenvalues --   -0.40186  -0.39734  -0.39569  -0.39513  -0.39277
 Alpha  occ. eigenvalues --   -0.38952  -0.38809  -0.38739  -0.38403  -0.38185
 Alpha  occ. eigenvalues --   -0.38049  -0.37777  -0.37403  -0.37288  -0.37186
 Alpha  occ. eigenvalues --   -0.36622  -0.36247  -0.36012  -0.35548  -0.35382
 Alpha  occ. eigenvalues --   -0.34950  -0.29677  -0.29572  -0.26160
 Alpha virt. eigenvalues --   -0.10159  -0.06002  -0.03025  -0.01927  -0.00405
 Alpha virt. eigenvalues --   -0.00216   0.00677   0.01052   0.01441   0.01475
 Alpha virt. eigenvalues --    0.02849   0.04190   0.05815   0.06021   0.07108
 Alpha virt. eigenvalues --    0.08450   0.08820   0.09028   0.09277   0.09673
 Alpha virt. eigenvalues --    0.09764   0.10019   0.10217   0.10348   0.10538
 Alpha virt. eigenvalues --    0.10591   0.10823   0.11367   0.11661   0.12133
 Alpha virt. eigenvalues --    0.12358   0.12848   0.13438   0.13846   0.14432
 Alpha virt. eigenvalues --    0.14707   0.14952   0.15488   0.15836   0.16203
 Alpha virt. eigenvalues --    0.16722   0.17002   0.17180   0.17500   0.17975
 Alpha virt. eigenvalues --    0.18235   0.18816   0.18912   0.19386   0.19680
 Alpha virt. eigenvalues --    0.20117   0.20384   0.20609   0.20899   0.21707
 Alpha virt. eigenvalues --    0.22064   0.22358   0.22598   0.23051   0.24439
 Alpha virt. eigenvalues --    0.24672   0.24786   0.25117   0.25511   0.25778
 Alpha virt. eigenvalues --    0.25827   0.25981   0.26600   0.26784   0.27186
 Alpha virt. eigenvalues --    0.27468   0.27818   0.28634   0.28778   0.28855
 Alpha virt. eigenvalues --    0.29290   0.29738   0.30526   0.31074   0.31871
 Alpha virt. eigenvalues --    0.32199   0.32899   0.33565   0.34136   0.34790
 Alpha virt. eigenvalues --    0.35179   0.35910   0.36027   0.37037   0.37567
 Alpha virt. eigenvalues --    0.38537   0.39896   0.40436   0.40664   0.40852
 Alpha virt. eigenvalues --    0.41638   0.42198   0.42640   0.43207   0.43508
 Alpha virt. eigenvalues --    0.43688   0.44338   0.44621   0.45290   0.45683
 Alpha virt. eigenvalues --    0.46435   0.46490   0.46791   0.47443   0.48050
 Alpha virt. eigenvalues --    0.48362   0.48524   0.48659   0.48992   0.49166
 Alpha virt. eigenvalues --    0.49443   0.49572   0.49658   0.50539   0.50678
 Alpha virt. eigenvalues --    0.50865   0.51136   0.51631   0.52033   0.52095
 Alpha virt. eigenvalues --    0.52745   0.53452   0.53692   0.53940   0.54412
 Alpha virt. eigenvalues --    0.55564   0.55718   0.56169   0.56848   0.56977
 Alpha virt. eigenvalues --    0.57212   0.57923   0.58304   0.58637   0.59450
 Alpha virt. eigenvalues --    0.59941   0.60128   0.60976   0.61210   0.61457
 Alpha virt. eigenvalues --    0.61890   0.62719   0.63444   0.63857   0.64097
 Alpha virt. eigenvalues --    0.64334   0.64874   0.65264   0.65734   0.66170
 Alpha virt. eigenvalues --    0.66522   0.66561   0.66918   0.67066   0.67421
 Alpha virt. eigenvalues --    0.67613   0.68030   0.68345   0.68655   0.68947
 Alpha virt. eigenvalues --    0.69517   0.69639   0.69867   0.70136   0.70293
 Alpha virt. eigenvalues --    0.70636   0.70846   0.70970   0.71136   0.71387
 Alpha virt. eigenvalues --    0.71773   0.71883   0.72752   0.72795   0.72942
 Alpha virt. eigenvalues --    0.73280   0.73571   0.74271   0.74648   0.74911
 Alpha virt. eigenvalues --    0.75276   0.76313   0.76588   0.76743   0.77182
 Alpha virt. eigenvalues --    0.77901   0.78163   0.78414   0.78563   0.78717
 Alpha virt. eigenvalues --    0.79796   0.79945   0.80487   0.80993   0.81737
 Alpha virt. eigenvalues --    0.82383   0.82969   0.83868   0.85546   0.85737
 Alpha virt. eigenvalues --    0.86300   0.86429   0.86753   0.87521   0.87885
 Alpha virt. eigenvalues --    0.88089   0.89120   0.89412   0.89930   0.90127
 Alpha virt. eigenvalues --    0.91051   0.91198   0.92209   0.92445   0.92865
 Alpha virt. eigenvalues --    0.93703   0.93988   0.94343   0.94884   0.95242
 Alpha virt. eigenvalues --    0.96340   0.96802   0.97134   0.97780   0.98757
 Alpha virt. eigenvalues --    0.99004   0.99436   0.99582   1.00236   1.01390
 Alpha virt. eigenvalues --    1.01936   1.02204   1.02569   1.03149   1.03507
 Alpha virt. eigenvalues --    1.04385   1.04971   1.05243   1.05712   1.06098
 Alpha virt. eigenvalues --    1.06903   1.07997   1.08292   1.08727   1.09168
 Alpha virt. eigenvalues --    1.09652   1.10197   1.10353   1.11404   1.11734
 Alpha virt. eigenvalues --    1.12302   1.12760   1.13097   1.13637   1.14136
 Alpha virt. eigenvalues --    1.14401   1.14830   1.15197   1.15993   1.16239
 Alpha virt. eigenvalues --    1.16661   1.17209   1.17353   1.17907   1.18116
 Alpha virt. eigenvalues --    1.18664   1.19132   1.19329   1.19628   1.20099
 Alpha virt. eigenvalues --    1.20703   1.20939   1.21262   1.21627   1.21976
 Alpha virt. eigenvalues --    1.22599   1.23053   1.23266   1.23505   1.24154
 Alpha virt. eigenvalues --    1.24527   1.24851   1.25400   1.25987   1.26329
 Alpha virt. eigenvalues --    1.26654   1.27229   1.28284   1.28643   1.28916
 Alpha virt. eigenvalues --    1.29233   1.29859   1.30422   1.30962   1.31502
 Alpha virt. eigenvalues --    1.31968   1.32266   1.32766   1.33290   1.33538
 Alpha virt. eigenvalues --    1.34117   1.34222   1.34651   1.34683   1.34922
 Alpha virt. eigenvalues --    1.36574   1.37391   1.37509   1.37962   1.38338
 Alpha virt. eigenvalues --    1.38770   1.39494   1.39940   1.40305   1.40985
 Alpha virt. eigenvalues --    1.41370   1.41913   1.42602   1.43331   1.43596
 Alpha virt. eigenvalues --    1.43811   1.44096   1.44414   1.45318   1.46309
 Alpha virt. eigenvalues --    1.46772   1.47079   1.47404   1.48255   1.49246
 Alpha virt. eigenvalues --    1.49735   1.49794   1.50453   1.50754   1.51790
 Alpha virt. eigenvalues --    1.52191   1.53145   1.53200   1.53548   1.54066
 Alpha virt. eigenvalues --    1.54372   1.54852   1.55445   1.55636   1.55864
 Alpha virt. eigenvalues --    1.56368   1.57270   1.58441   1.59132   1.59587
 Alpha virt. eigenvalues --    1.60965   1.61145   1.61208   1.61503   1.62206
 Alpha virt. eigenvalues --    1.63134   1.63757   1.64072   1.65466   1.65852
 Alpha virt. eigenvalues --    1.65995   1.66310   1.67384   1.67711   1.67893
 Alpha virt. eigenvalues --    1.68569   1.68974   1.69319   1.69739   1.70772
 Alpha virt. eigenvalues --    1.71074   1.71518   1.72135   1.72549   1.72912
 Alpha virt. eigenvalues --    1.73538   1.73867   1.74203   1.74383   1.74815
 Alpha virt. eigenvalues --    1.75068   1.75310   1.75878   1.76180   1.76366
 Alpha virt. eigenvalues --    1.76841   1.77598   1.78181   1.78947   1.79300
 Alpha virt. eigenvalues --    1.79830   1.80481   1.80995   1.81456   1.82129
 Alpha virt. eigenvalues --    1.83267   1.83921   1.84381   1.84538   1.84993
 Alpha virt. eigenvalues --    1.85921   1.86182   1.86479   1.86645   1.86835
 Alpha virt. eigenvalues --    1.87591   1.87851   1.88047   1.88758   1.89234
 Alpha virt. eigenvalues --    1.90141   1.90856   1.91150   1.91370   1.91634
 Alpha virt. eigenvalues --    1.92313   1.92677   1.93024   1.93328   1.93432
 Alpha virt. eigenvalues --    1.93721   1.94214   1.95307   1.95785   1.96481
 Alpha virt. eigenvalues --    1.96807   1.96975   1.97134   1.98217   1.98330
 Alpha virt. eigenvalues --    1.99094   1.99424   1.99652   2.00481   2.00866
 Alpha virt. eigenvalues --    2.01620   2.01791   2.02651   2.02977   2.03424
 Alpha virt. eigenvalues --    2.04655   2.04781   2.05465   2.05923   2.07103
 Alpha virt. eigenvalues --    2.08351   2.09039   2.09398   2.09615   2.11736
 Alpha virt. eigenvalues --    2.12311   2.12483   2.13210   2.13816   2.14125
 Alpha virt. eigenvalues --    2.15079   2.16348   2.17208   2.17442   2.17923
 Alpha virt. eigenvalues --    2.19632   2.20259   2.21023   2.21339   2.21944
 Alpha virt. eigenvalues --    2.22248   2.22781   2.23338   2.23712   2.24189
 Alpha virt. eigenvalues --    2.24960   2.25785   2.26982   2.27385   2.27890
 Alpha virt. eigenvalues --    2.28648   2.29615   2.30999   2.31445   2.31524
 Alpha virt. eigenvalues --    2.33061   2.33630   2.34627   2.35066   2.35621
 Alpha virt. eigenvalues --    2.37896   2.38773   2.40164   2.41429   2.42373
 Alpha virt. eigenvalues --    2.45042   2.45452   2.48645   2.49307   2.52389
 Alpha virt. eigenvalues --    2.54075   2.55577   2.56257   2.56723   2.57005
 Alpha virt. eigenvalues --    2.58006   2.58793   2.59106   2.60114   2.60441
 Alpha virt. eigenvalues --    2.60835   2.60945   2.61555   2.61711   2.62430
 Alpha virt. eigenvalues --    2.62933   2.63041   2.63371   2.64038   2.64692
 Alpha virt. eigenvalues --    2.64928   2.65438   2.66423   2.66949   2.67285
 Alpha virt. eigenvalues --    2.67585   2.69197   2.69377   2.69908   2.70132
 Alpha virt. eigenvalues --    2.70837   2.72022   2.72737   2.72803   2.73184
 Alpha virt. eigenvalues --    2.74250   2.74575   2.75282   2.77343   2.77514
 Alpha virt. eigenvalues --    2.78429   2.78549   2.79082   2.79562   2.79824
 Alpha virt. eigenvalues --    2.80042   2.80501   2.80952   2.81987   2.82068
 Alpha virt. eigenvalues --    2.82522   2.82725   2.83116   2.83720   2.84090
 Alpha virt. eigenvalues --    2.85574   2.85906   2.86636   2.87214   2.87620
 Alpha virt. eigenvalues --    2.89539   2.90350   2.90934   2.92729   2.93406
 Alpha virt. eigenvalues --    2.93652   2.93966   2.94294   2.95361   2.96229
 Alpha virt. eigenvalues --    2.96274   2.96947   2.97339   2.97715   2.98371
 Alpha virt. eigenvalues --    2.98749   2.98851   2.98921   2.99066   2.99599
 Alpha virt. eigenvalues --    3.00152   3.00572   3.01249   3.02478   3.02814
 Alpha virt. eigenvalues --    3.03022   3.03202   3.03241   3.03272   3.03371
 Alpha virt. eigenvalues --    3.03432   3.03489   3.03678   3.03805   3.03870
 Alpha virt. eigenvalues --    3.04039   3.04577   3.04902   3.05079   3.05397
 Alpha virt. eigenvalues --    3.05453   3.05888   3.06513   3.07404   3.07850
 Alpha virt. eigenvalues --    3.08362   3.11781   3.13019   3.13994   3.14547
 Alpha virt. eigenvalues --    3.15471   3.16002   3.16069   3.16333   3.16640
 Alpha virt. eigenvalues --    3.16896   3.20764   3.21223   3.22138   3.22233
 Alpha virt. eigenvalues --    3.23654   3.32273   3.34380   3.35143   3.36052
 Alpha virt. eigenvalues --    3.37692   3.37850   3.38412   3.38607   3.38725
 Alpha virt. eigenvalues --    3.39027   3.39789   3.40457   3.42849   3.44625
 Alpha virt. eigenvalues --    3.50972   3.51480   3.52359   3.52739   3.53037
 Alpha virt. eigenvalues --    3.53302   3.53518   3.54215   3.54651   3.56200
 Alpha virt. eigenvalues --    3.61099   3.67556   3.67856   3.68444   3.69063
 Alpha virt. eigenvalues --    3.80840   3.81396   3.82816   3.83240   3.83602
 Alpha virt. eigenvalues --    3.84122
          Condensed to atoms (all electrons):
 Mulliken charges:
               1
     1  C   -0.023758
     2  C   -0.002530
     3  C    0.002314
     4  C    0.014374
     5  C    0.003102
     6  C   -0.001892
     7  C   -0.162627
     8  C    0.201375
     9  C    0.248985
    10  H    0.005518
    11  H    0.011757
    12  H    0.015201
    13  H    0.012964
    14  H    0.004432
    15  O   -0.325082
    16  O   -0.290771
    17  O   -0.283026
    18  O   -0.272459
    19  C    0.156168
    20  C    0.164812
    21  H    0.060071
    22  H    0.052057
    23  H    0.055608
    24  H    0.059284
    25  H    0.060322
    26  H    0.054326
    27  O   -0.436912
    28  O   -0.437954
    29  O   -0.426148
    30  S    0.887863
    31  S    0.867070
    32  S    0.864097
    33  O   -0.443373
    34  O   -0.406367
    35  O   -0.424365
    36  O   -0.397064
    37  O   -0.438690
    38  O   -0.418358
    39  C    0.437767
    40  C    0.441369
    41  C    0.420769
    42  F   -0.121847
    43  F   -0.115422
    44  F   -0.128348
    45  F   -0.104785
    46  F   -0.122602
    47  F   -0.123726
    48  F   -0.120803
    49  F   -0.123131
    50  F   -0.115937
    51  C    0.060109
    52  H    0.035710
    53  C   -0.082345
    54  C   -0.154127
    55  C   -0.196684
    56  C    0.072724
    57  C    0.056992
    58  C    0.075258
    59  H    0.090906
    60  H    0.094930
    61  H    0.069582
    62  N    0.142606
    63  N    0.148158
    64  N   -0.109131
    65  N    0.021945
    66  C    0.218969
    67  H    0.103370
    68  Sc   0.241115
    69  C    0.203040
    70  H    0.052767
    71  H    0.020479
 Sum of Mulliken charges =  -0.00000
 Mulliken charges with hydrogens summed into heavy atoms:
               1
     1  C   -0.023758
     2  C    0.002989
     3  C    0.014071
     4  C    0.029575
     5  C    0.016066
     6  C    0.002540
     7  C   -0.162627
     8  C    0.201375
     9  C    0.248985
    15  O   -0.325082
    16  O   -0.290771
    17  O   -0.283026
    18  O   -0.272459
    19  C    0.323904
    20  C    0.338744
    27  O   -0.436912
    28  O   -0.437954
    29  O   -0.426148
    30  S    0.887863
    31  S    0.867070
    32  S    0.864097
    33  O   -0.443373
    34  O   -0.406367
    35  O   -0.424365
    36  O   -0.397064
    37  O   -0.438690
    38  O   -0.418358
    39  C    0.437767
    40  C    0.441369
    41  C    0.420769
    42  F   -0.121847
    43  F   -0.115422
    44  F   -0.128348
    45  F   -0.104785
    46  F   -0.122602
    47  F   -0.123726
    48  F   -0.120803
    49  F   -0.123131
    50  F   -0.115937
    51  C    0.095819
    53  C   -0.082345
    54  C   -0.154127
    55  C   -0.196684
    56  C    0.163630
    57  C    0.151922
    58  C    0.144840
    62  N    0.142606
    63  N    0.148158
    64  N   -0.109131
    65  N    0.021945
    66  C    0.322339
    68  Sc   0.241115
    69  C    0.276286
 APT charges:
               1
     1  C   -1.419578
     2  C   -0.128073
     3  C   -0.485861
     4  C   -0.709001
     5  C   -0.549378
     6  C   -0.185913
     7  C   -0.217176
     8  C   -0.274150
     9  C   -0.183204
    10  H   -0.217329
    11  H    0.952787
    12  H    1.713969
    13  H    1.225320
    14  H    0.046190
    15  O   -0.370670
    16  O   -0.369399
    17  O    0.016217
    18  O    0.036847
    19  C   -0.754990
    20  C   -0.776279
    21  H    0.813954
    22  H    0.079665
    23  H    0.243711
    24  H    0.899996
    25  H    0.082138
    26  H    0.261023
    27  O   -0.622986
    28  O   -0.389976
    29  O   -0.708926
    30  S    0.009767
    31  S   -0.060459
    32  S    0.086256
    33  O   -0.407891
    34  O    0.728955
    35  O   -0.666574
    36  O    0.717628
    37  O   -0.635920
    38  O    0.296042
    39  C   -0.734360
    40  C   -0.675119
    41  C   -0.535943
    42  F    0.101272
    43  F    0.182065
    44  F    0.747014
    45  F   -0.257040
    46  F    0.634296
    47  F    0.610459
    48  F    0.734975
    49  F   -0.210399
    50  F    0.077224
    51  C   -0.142171
    52  H    0.120883
    53  C   -1.367475
    54  C   -3.057774
    55  C   -1.649415
    56  C   -0.539406
    57  C   -0.690568
    58  C   -0.168837
    59  H    0.166367
    60  H    0.866391
    61  H    0.378450
    62  N    4.089578
    63  N    2.147252
    64  N    0.093035
    65  N    0.233554
    66  C   -0.087982
    67  H    0.297312
    68  Sc   0.291673
    69  C   -0.475976
    70  H    0.333424
    71  H    0.410508
 Sum of APT charges =  -0.00000
 APT charges with hydrogens summed into heavy atoms:
               1
     1  C   -1.419578
     2  C   -0.345402
     3  C    0.466926
     4  C    1.004968
     5  C    0.675942
     6  C   -0.139723
     7  C   -0.217176
     8  C   -0.274150
     9  C   -0.183204
    15  O   -0.370670
    16  O   -0.369399
    17  O    0.016217
    18  O    0.036847
    19  C    0.382340
    20  C    0.466878
    27  O   -0.622986
    28  O   -0.389976
    29  O   -0.708926
    30  S    0.009767
    31  S   -0.060459
    32  S    0.086256
    33  O   -0.407891
    34  O    0.728955
    35  O   -0.666574
    36  O    0.717628
    37  O   -0.635920
    38  O    0.296042
    39  C   -0.734360
    40  C   -0.675119
    41  C   -0.535943
    42  F    0.101272
    43  F    0.182065
    44  F    0.747014
    45  F   -0.257040
    46  F    0.634296
    47  F    0.610459
    48  F    0.734975
    49  F   -0.210399
    50  F    0.077224
    51  C   -0.021288
    53  C   -1.367475
    54  C   -3.057774
    55  C   -1.649415
    56  C   -0.373039
    57  C    0.175823
    58  C    0.209613
    62  N    4.089578
    63  N    2.147252
    64  N    0.093035
    65  N    0.233554
    66  C    0.209330
    68  Sc   0.291673
    69  C    0.267956
 Electronic spatial extent (au):  <R**2>=          33664.3302
 Charge=             -0.0000 electrons
 Dipole moment (field-independent basis, Debye):
    X=             15.1662    Y=              9.7266    Z=              0.0009  Tot=             18.0172
 Quadrupole moment (field-independent basis, Debye-Ang):
   XX=           -348.7503   YY=           -327.0063   ZZ=           -323.0583
   XY=            -14.2093   XZ=             -2.9468   YZ=             -2.0313
 Traceless Quadrupole moment (field-independent basis, Debye-Ang):
   XX=            -15.8120   YY=              5.9320   ZZ=              9.8800
   XY=            -14.2093   XZ=             -2.9468   YZ=             -2.0313
 Octapole moment (field-independent basis, Debye-Ang**2):
  XXX=           -366.9433  YYY=            130.7651  ZZZ=            -97.3190  XYY=            -47.3201
  XXY=           -187.4423  XXZ=            -87.7301  XZZ=            -49.2652  YZZ=            -24.4585
  YYZ=              1.9030  XYZ=            -33.8605
 Hexadecapole moment (field-independent basis, Debye-Ang**3):
 XXXX=         -28602.7898 YYYY=          -8529.9881 ZZZZ=          -5128.3798 XXXY=          -1926.4869
 XXXZ=           -161.5312 YYYX=           -255.6900 YYYZ=            -62.0685 ZZZX=           -260.8901
 ZZZY=            -75.1651 XXYY=          -6334.6974 XXZZ=          -5893.5133 YYZZ=          -2236.6977
 XXYZ=            -17.3785 YYXZ=            -45.1365 ZZXY=           -134.7303
 N-N= 1.062792359546D+04 E-N=-3.288407929500D+04  KE= 4.900210875666D+03
  Exact polarizability:   0.000   0.000   0.000   0.000   0.000   0.000
 Approx polarizability: 508.212 -32.083 431.873 -23.793 -58.205 529.441

 This type of calculation cannot be archived.


 THE PROGRESS OF RIVERS TO THE SEA IS NOT AS RAPID
 AS THAT OF MAN TO ERROR.
                                              -- VOLTAIRE
 Job cpu time:       5 days  0 hours 13 minutes 27.2 seconds.
 Elapsed time:       0 days  5 hours  7 minutes 21.7 seconds.
 File lengths (MBytes):  RWF=   6740 Int=      0 D2E=      0 Chk=    132 Scr=      8
 Normal termination of Gaussian 16 at Wed Mar 12 02:45:56 2025.
