 Entering Gaussian System, Link 0=/sysapps/ubuntu-applications/gaussian-new/avx/g16//g16
 Input=i2.in
 Output=i2.log
 Initial command:
 /sysapps/ubuntu-applications/gaussian-new/avx/g16/l1.exe "/scratch/selhajj1/7595732/Gau-1888729.inp" -scrdir="/scratch/selhajj1/7595732/"
 Entering Link 1 = /sysapps/ubuntu-applications/gaussian-new/avx/g16/l1.exe PID=   1888731.
  
 Copyright (c) 1988,1990,1992,1993,1995,1998,2003,2009,2016,
            Gaussian, Inc.  All Rights Reserved.
  
 This is part of the Gaussian(R) 16 program.  It is based on
 the Gaussian(R) 09 system (copyright 2009, Gaussian, Inc.),
 the Gaussian(R) 03 system (copyright 2003, Gaussian, Inc.),
 the Gaussian(R) 98 system (copyright 1998, Gaussian, Inc.),
 the Gaussian(R) 94 system (copyright 1995, Gaussian, Inc.),
 the Gaussian 92(TM) system (copyright 1992, Gaussian, Inc.),
 the Gaussian 90(TM) system (copyright 1990, Gaussian, Inc.),
 the Gaussian 88(TM) system (copyright 1988, Gaussian, Inc.),
 the Gaussian 86(TM) system (copyright 1986, Carnegie Mellon
 University), and the Gaussian 82(TM) system (copyright 1983,
 Carnegie Mellon University). Gaussian is a federally registered
 trademark of Gaussian, Inc.
  
 This software contains proprietary and confidential information,
 including trade secrets, belonging to Gaussian, Inc.
  
 This software is provided under written license and may be
 used, copied, transmitted, or stored only in accord with that
 written license.
  
 The following legend is applicable only to US Government
 contracts under FAR:
  
                    RESTRICTED RIGHTS LEGEND
  
 Use, reproduction and disclosure by the US Government is
 subject to restrictions as set forth in subparagraphs (a)
 and (c) of the Commercial Computer Software - Restricted
 Rights clause in FAR 52.227-19.
  
 Gaussian, Inc.
 340 Quinnipiac St., Bldg. 40, Wallingford CT 06492
  
  
 ---------------------------------------------------------------
 Warning -- This program may not be used in any manner that
 competes with the business of Gaussian, Inc. or will provide
 assistance to any competitor of Gaussian, Inc.  The licensee
 of this program is prohibited from giving any competitor of
 Gaussian, Inc. access to this program.  By using this program,
 the user acknowledges that Gaussian, Inc. is engaged in the
 business of creating and licensing software in the field of
 computational chemistry and represents and warrants to the
 licensee that it is not a competitor of Gaussian, Inc. and that
 it will not use this program in any manner prohibited above.
 ---------------------------------------------------------------
  

 Cite this work as:
 Gaussian 16, Revision A.03,
 M. J. Frisch, G. W. Trucks, H. B. Schlegel, G. E. Scuseria, 
 M. A. Robb, J. R. Cheeseman, G. Scalmani, V. Barone, 
 G. A. Petersson, H. Nakatsuji, X. Li, M. Caricato, A. V. Marenich, 
 J. Bloino, B. G. Janesko, R. Gomperts, B. Mennucci, H. P. Hratchian, 
 J. V. Ortiz, A. F. Izmaylov, J. L. Sonnenberg, D. Williams-Young, 
 F. Ding, F. Lipparini, F. Egidi, J. Goings, B. Peng, A. Petrone, 
 T. Henderson, D. Ranasinghe, V. G. Zakrzewski, J. Gao, N. Rega, 
 G. Zheng, W. Liang, M. Hada, M. Ehara, K. Toyota, R. Fukuda, 
 J. Hasegawa, M. Ishida, T. Nakajima, Y. Honda, O. Kitao, H. Nakai, 
 T. Vreven, K. Throssell, J. A. Montgomery, Jr., J. E. Peralta, 
 F. Ogliaro, M. J. Bearpark, J. J. Heyd, E. N. Brothers, K. N. Kudin, 
 V. N. Staroverov, T. A. Keith, R. Kobayashi, J. Normand, 
 K. Raghavachari, A. P. Rendell, J. C. Burant, S. S. Iyengar, 
 J. Tomasi, M. Cossi, J. M. Millam, M. Klene, C. Adamo, R. Cammi, 
 J. W. Ochterski, R. L. Martin, K. Morokuma, O. Farkas, 
 J. B. Foresman, and D. J. Fox, Gaussian, Inc., Wallingford CT, 2016.
 
 ******************************************
 Gaussian 16:  ES64L-G16RevA.03 25-Dec-2016
                18-Feb-2025 
 ******************************************
 %chk=i2.chk
 %mem=616Gb
 %nprocshared=24
 Will use up to   24 processors via shared memory.
 ------------------------------------------------------------------
 #P MN15/gen scf=(maxcyc=500) opt scrf=(smd,solvent=DiChloroEthane)
 ------------------------------------------------------------------
 1/18=20,19=15,26=3,38=1/1,3;
 2/9=110,12=2,17=6,18=5,40=1/2;
 3/5=7,11=2,25=1,30=1,70=32201,71=1,72=10,74=-73/1,2,3;
 4//1;
 5/5=2,7=500,38=5,53=10/2;
 6/7=2,8=2,9=2,10=2,28=1/1;
 7//1,2,3,16;
 1/18=20,19=15,26=3/3(2);
 2/9=110/2;
 99//99;
 2/9=110/2;
 3/5=7,6=1,11=2,25=1,30=1,70=32205,71=1,72=10,74=-73,82=7/1,2,3;
 4/5=5,16=3,69=1/1;
 5/5=2,7=500,38=5,53=10/2;
 7//1,2,3,16;
 1/18=20,19=15,26=3/3(-5);
 2/9=110/2;
 6/7=2,8=2,9=2,10=2,19=2,28=1/1;
 99/9=1/99;
 Leave Link    1 at Tue Feb 18 00:15:38 2025, MaxMem= 82678120448 cpu:               3.6 elap:               0.4
 (Enter /sysapps/ubuntu-applications/gaussian-new/avx/g16/l101.exe)
 ---
 Opt
 ---
 Symbolic Z-matrix:
 Charge =  0 Multiplicity = 1
 C                    -1.80591   0.12099   1.21316 
 C                    -1.46825   0.1546   -0.16156 
 C                    -0.75006  -0.13483   2.12572 
 O                     0.4634   -0.33764   1.82159 
 O                    -0.31236   0.21238  -0.66279 
 O                    -2.49131   0.05716  -1.00052 
 O                    -1.08404  -0.24494   3.40703 
 C                    -2.21205   0.0826   -2.39886 
 C                    -0.04032  -0.49507   4.34572 
 H                    -3.15677  -0.14079  -2.90772 
 H                    -1.44909  -0.66668  -2.65557 
 H                    -1.8527    1.07553  -2.70023 
 H                    -0.51363  -0.50224   5.33322 
 H                     0.72009   0.29607   4.29617 
 H                     0.43721  -1.4648    4.14904 
 O                     3.36707  -0.86956   0.93873 
 O                     2.29652  -0.37476  -1.75658 
 O                     0.51662   2.2774    1.01568 
 S                     1.06364   3.0976   -0.0939 
 S                     4.03629   0.25776   1.65896 
 S                     1.947    -1.82786  -1.67492 
 O                     1.89983   2.16083  -0.91224 
 O                     1.62749   4.38793   0.21391 
 O                     3.05089   1.37605   1.58684 
 O                     4.6683   -0.02255   2.92098 
 O                     1.3182   -2.02393  -0.34641 
 O                     1.27745  -2.40744  -2.81933 
 C                     3.60412  -2.68585  -1.57075 
 C                     5.36117   0.77138   0.49079 
 C                    -0.40563   3.44674  -1.199 
 F                     3.62437  -3.47432  -0.51396 
 F                     4.57584  -1.79896  -1.48295 
 F                     3.77644  -3.4119   -2.66114 
 F                     4.8101    1.03512  -0.68105 
 F                     6.23797  -0.2061    0.36177 
 F                     5.96299   1.85113   0.95214 
 F                    -1.50559   2.93073  -0.67086 
 F                    -0.20852   2.91527  -2.39138 
 F                    -0.55778   4.75097  -1.32045 
 C                    -4.53497  -0.04816   1.16767 
 C                    -4.66824  -1.61276   1.16287 
 C                    -5.96929  -2.05535   0.62046 
 C                    -4.63278  -2.04818   2.57754 
 C                    -1.34178  -3.08622   0.28758 
 C                    -2.85523  -3.09526  -1.56899 
 C                    -1.55721  -3.3244   -1.05287 
 H                    -0.38084  -3.25925   0.77053 
 H                    -3.10714  -3.31236  -2.60905 
 H                    -0.7613   -3.68911  -1.70474 
 N                    -7.01915  -2.39031   0.2709 
 N                    -4.61825  -2.34949   3.69398 
 N                    -3.57107  -2.3224    0.42694 
 N                    -3.82799  -2.60009  -0.83748 
 C                    -2.40025  -2.55302   1.03148 
 H                    -2.33602  -2.36356   2.10394 
 C                    -3.18507   0.45648   1.75675 
 H                    -3.29762   1.55301   1.77342 
 H                    -3.18129   0.1595    2.81496 
 Sc                    1.56572   0.30059   0.22129 
 H                    -5.24301   0.20672   1.97489 
 C                    -5.08978   0.72015  -0.02854 
 C                    -5.35921   2.07943   0.1987 
 C                    -5.38993   0.19031  -1.28821 
 C                    -5.88654   2.89012  -0.80577 
 H                    -5.16171   2.51024   1.1846 
 C                    -5.92953   0.99789  -2.29387 
 H                    -5.18806  -0.85675  -1.51491 
 C                    -6.17448   2.35109  -2.0619 
 H                    -6.08344   3.94471  -0.60037 
 H                    -6.15244   0.5584   -3.26891 
 H                    -6.59246   2.98046  -2.85071 
 
 ITRead=  0  0  0  0  0  0  0  0  0  0  0  0  0  0  0  0  0  0  0  0
 ITRead=  0  0  0  0  0  0  0  0  0  0  0  0  0  0  0  0  0  0  0  0
 ITRead=  0  0  0  0  0  0  0  0  0  0  0  0  0  0  0  0  0  0  0  0
 ITRead=  0  0  0  0  0  0  0  0  0  0  0
 MicOpt= -1 -1 -1 -1 -1 -1 -1 -1 -1 -1 -1 -1 -1 -1 -1 -1 -1 -1 -1 -1
 MicOpt= -1 -1 -1 -1 -1 -1 -1 -1 -1 -1 -1 -1 -1 -1 -1 -1 -1 -1 -1 -1
 MicOpt= -1 -1 -1 -1 -1 -1 -1 -1 -1 -1 -1 -1 -1 -1 -1 -1 -1 -1 -1 -1
 MicOpt= -1 -1 -1 -1 -1 -1 -1 -1 -1 -1 -1
 NAtoms=     71 NQM=       71 NQMF=       0 NMMI=      0 NMMIF=      0
                NMic=       0 NMicF=      0.
                    Isotopes and Nuclear Properties:
 (Nuclear quadrupole moments (NQMom) in fm**2, nuclear magnetic moments (NMagM)
  in nuclear magnetons)

  Atom         1           2           3           4           5           6           7           8           9          10
 IAtWgt=          12          12          12          16          16          16          16          12          12           1
 AtmWgt=  12.0000000  12.0000000  12.0000000  15.9949146  15.9949146  15.9949146  15.9949146  12.0000000  12.0000000   1.0078250
 NucSpn=           0           0           0           0           0           0           0           0           0           1
 AtZEff=  -0.0000000  -0.0000000  -0.0000000  -0.0000000  -0.0000000  -0.0000000  -0.0000000  -0.0000000  -0.0000000  -0.0000000
 NQMom=    0.0000000   0.0000000   0.0000000   0.0000000   0.0000000   0.0000000   0.0000000   0.0000000   0.0000000   0.0000000
 NMagM=    0.0000000   0.0000000   0.0000000   0.0000000   0.0000000   0.0000000   0.0000000   0.0000000   0.0000000   2.7928460
 AtZNuc=   6.0000000   6.0000000   6.0000000   8.0000000   8.0000000   8.0000000   8.0000000   6.0000000   6.0000000   1.0000000

  Atom        11          12          13          14          15          16          17          18          19          20
 IAtWgt=           1           1           1           1           1          16          16          16          32          32
 AtmWgt=   1.0078250   1.0078250   1.0078250   1.0078250   1.0078250  15.9949146  15.9949146  15.9949146  31.9720718  31.9720718
 NucSpn=           1           1           1           1           1           0           0           0           0           0
 AtZEff=  -0.0000000  -0.0000000  -0.0000000  -0.0000000  -0.0000000  -0.0000000  -0.0000000  -0.0000000  -0.0000000  -0.0000000
 NQMom=    0.0000000   0.0000000   0.0000000   0.0000000   0.0000000   0.0000000   0.0000000   0.0000000   0.0000000   0.0000000
 NMagM=    2.7928460   2.7928460   2.7928460   2.7928460   2.7928460   0.0000000   0.0000000   0.0000000   0.0000000   0.0000000
 AtZNuc=   1.0000000   1.0000000   1.0000000   1.0000000   1.0000000   8.0000000   8.0000000   8.0000000  16.0000000  16.0000000

  Atom        21          22          23          24          25          26          27          28          29          30
 IAtWgt=          32          16          16          16          16          16          16          12          12          12
 AtmWgt=  31.9720718  15.9949146  15.9949146  15.9949146  15.9949146  15.9949146  15.9949146  12.0000000  12.0000000  12.0000000
 NucSpn=           0           0           0           0           0           0           0           0           0           0
 AtZEff=  -0.0000000  -0.0000000  -0.0000000  -0.0000000  -0.0000000  -0.0000000  -0.0000000  -0.0000000  -0.0000000  -0.0000000
 NQMom=    0.0000000   0.0000000   0.0000000   0.0000000   0.0000000   0.0000000   0.0000000   0.0000000   0.0000000   0.0000000
 NMagM=    0.0000000   0.0000000   0.0000000   0.0000000   0.0000000   0.0000000   0.0000000   0.0000000   0.0000000   0.0000000
 AtZNuc=  16.0000000   8.0000000   8.0000000   8.0000000   8.0000000   8.0000000   8.0000000   6.0000000   6.0000000   6.0000000

  Atom        31          32          33          34          35          36          37          38          39          40
 IAtWgt=          19          19          19          19          19          19          19          19          19          12
 AtmWgt=  18.9984032  18.9984032  18.9984032  18.9984032  18.9984032  18.9984032  18.9984032  18.9984032  18.9984032  12.0000000
 NucSpn=           1           1           1           1           1           1           1           1           1           0
 AtZEff=  -0.0000000  -0.0000000  -0.0000000  -0.0000000  -0.0000000  -0.0000000  -0.0000000  -0.0000000  -0.0000000  -0.0000000
 NQMom=    0.0000000   0.0000000   0.0000000   0.0000000   0.0000000   0.0000000   0.0000000   0.0000000   0.0000000   0.0000000
 NMagM=    2.6288670   2.6288670   2.6288670   2.6288670   2.6288670   2.6288670   2.6288670   2.6288670   2.6288670   0.0000000
 AtZNuc=   9.0000000   9.0000000   9.0000000   9.0000000   9.0000000   9.0000000   9.0000000   9.0000000   9.0000000   6.0000000

  Atom        41          42          43          44          45          46          47          48          49          50
 IAtWgt=          12          12          12          12          12          12           1           1           1          14
 AtmWgt=  12.0000000  12.0000000  12.0000000  12.0000000  12.0000000  12.0000000   1.0078250   1.0078250   1.0078250  14.0030740
 NucSpn=           0           0           0           0           0           0           1           1           1           2
 AtZEff=  -0.0000000  -0.0000000  -0.0000000  -0.0000000  -0.0000000  -0.0000000  -0.0000000  -0.0000000  -0.0000000  -0.0000000
 NQMom=    0.0000000   0.0000000   0.0000000   0.0000000   0.0000000   0.0000000   0.0000000   0.0000000   0.0000000   2.0440000
 NMagM=    0.0000000   0.0000000   0.0000000   0.0000000   0.0000000   0.0000000   2.7928460   2.7928460   2.7928460   0.4037610
 AtZNuc=   6.0000000   6.0000000   6.0000000   6.0000000   6.0000000   6.0000000   1.0000000   1.0000000   1.0000000   7.0000000

  Atom        51          52          53          54          55          56          57          58          59          60
 IAtWgt=          14          14          14          12           1          12           1           1          45           1
 AtmWgt=  14.0030740  14.0030740  14.0030740  12.0000000   1.0078250  12.0000000   1.0078250   1.0078250  44.9559136   1.0078250
 NucSpn=           2           2           2           0           1           0           1           1           7           1
 AtZEff=  -0.0000000  -0.0000000  -0.0000000  -0.0000000  -0.0000000  -0.0000000  -0.0000000  -0.0000000  -0.0000000  -0.0000000
 NQMom=    2.0440000   2.0440000   2.0440000   0.0000000   0.0000000   0.0000000   0.0000000   0.0000000 -22.0000000   0.0000000
 NMagM=    0.4037610   0.4037610   0.4037610   0.0000000   2.7928460   0.0000000   2.7928460   2.7928460   4.7564830   2.7928460
 AtZNuc=   7.0000000   7.0000000   7.0000000   6.0000000   1.0000000   6.0000000   1.0000000   1.0000000  21.0000000   1.0000000

  Atom        61          62          63          64          65          66          67          68          69          70
 IAtWgt=          12          12          12          12           1          12           1          12           1           1
 AtmWgt=  12.0000000  12.0000000  12.0000000  12.0000000   1.0078250  12.0000000   1.0078250  12.0000000   1.0078250   1.0078250
 NucSpn=           0           0           0           0           1           0           1           0           1           1
 AtZEff=  -0.0000000  -0.0000000  -0.0000000  -0.0000000  -0.0000000  -0.0000000  -0.0000000  -0.0000000  -0.0000000  -0.0000000
 NQMom=    0.0000000   0.0000000   0.0000000   0.0000000   0.0000000   0.0000000   0.0000000   0.0000000   0.0000000   0.0000000
 NMagM=    0.0000000   0.0000000   0.0000000   0.0000000   2.7928460   0.0000000   2.7928460   0.0000000   2.7928460   2.7928460
 AtZNuc=   6.0000000   6.0000000   6.0000000   6.0000000   1.0000000   6.0000000   1.0000000   6.0000000   1.0000000   1.0000000

  Atom        71
 IAtWgt=           1
 AtmWgt=   1.0078250
 NucSpn=           1
 AtZEff=  -0.0000000
 NQMom=    0.0000000
 NMagM=    2.7928460
 AtZNuc=   1.0000000
 Leave Link  101 at Tue Feb 18 00:15:38 2025, MaxMem= 82678120448 cpu:               6.7 elap:               0.7
 (Enter /sysapps/ubuntu-applications/gaussian-new/avx/g16/l103.exe)

 GradGradGradGradGradGradGradGradGradGradGradGradGradGradGradGradGradGrad
 Berny optimization.
 Initialization pass.
                           ----------------------------
                           !    Initial Parameters    !
                           ! (Angstroms and Degrees)  !
 --------------------------                            --------------------------
 ! Name  Definition              Value          Derivative Info.                !
 --------------------------------------------------------------------------------
 ! R1    R(1,2)                  1.416          estimate D2E/DX2                !
 ! R2    R(1,3)                  1.4188         estimate D2E/DX2                !
 ! R3    R(1,56)                 1.5199         estimate D2E/DX2                !
 ! R4    R(2,5)                  1.2612         estimate D2E/DX2                !
 ! R5    R(2,6)                  1.3266         estimate D2E/DX2                !
 ! R6    R(3,4)                  1.2673         estimate D2E/DX2                !
 ! R7    R(3,7)                  1.3287         estimate D2E/DX2                !
 ! R8    R(4,59)                 2.0453         estimate D2E/DX2                !
 ! R9    R(5,59)                 2.0776         estimate D2E/DX2                !
 ! R10   R(6,8)                  1.4262         estimate D2E/DX2                !
 ! R11   R(7,9)                  1.4259         estimate D2E/DX2                !
 ! R12   R(8,10)                 1.0961         estimate D2E/DX2                !
 ! R13   R(8,11)                 1.0997         estimate D2E/DX2                !
 ! R14   R(8,12)                 1.0981         estimate D2E/DX2                !
 ! R15   R(9,13)                 1.0951         estimate D2E/DX2                !
 ! R16   R(9,14)                 1.0984         estimate D2E/DX2                !
 ! R17   R(9,15)                 1.0987         estimate D2E/DX2                !
 ! R18   R(16,20)                1.4958         estimate D2E/DX2                !
 ! R19   R(16,59)                2.2647         estimate D2E/DX2                !
 ! R20   R(17,21)                1.4968         estimate D2E/DX2                !
 ! R21   R(17,59)                2.2141         estimate D2E/DX2                !
 ! R22   R(18,19)                1.4843         estimate D2E/DX2                !
 ! R23   R(18,59)                2.3747         estimate D2E/DX2                !
 ! R24   R(19,22)                1.4988         estimate D2E/DX2                !
 ! R25   R(19,23)                1.4414         estimate D2E/DX2                !
 ! R26   R(19,30)                1.8713         estimate D2E/DX2                !
 ! R27   R(19,59)                2.8591         estimate D2E/DX2                !
 ! R28   R(20,24)                1.4922         estimate D2E/DX2                !
 ! R29   R(20,25)                1.439          estimate D2E/DX2                !
 ! R30   R(20,29)                1.8395         estimate D2E/DX2                !
 ! R31   R(20,59)                2.8588         estimate D2E/DX2                !
 ! R32   R(21,26)                1.4828         estimate D2E/DX2                !
 ! R33   R(21,27)                1.447          estimate D2E/DX2                !
 ! R34   R(21,28)                1.869          estimate D2E/DX2                !
 ! R35   R(21,59)                2.876          estimate D2E/DX2                !
 ! R36   R(22,59)                2.2039         estimate D2E/DX2                !
 ! R37   R(24,59)                2.2863         estimate D2E/DX2                !
 ! R38   R(26,59)                2.4056         estimate D2E/DX2                !
 ! R39   R(28,31)                1.3187         estimate D2E/DX2                !
 ! R40   R(28,32)                1.3185         estimate D2E/DX2                !
 ! R41   R(28,33)                1.3213         estimate D2E/DX2                !
 ! R42   R(29,34)                1.3215         estimate D2E/DX2                !
 ! R43   R(29,35)                1.3194         estimate D2E/DX2                !
 ! R44   R(29,36)                1.3194         estimate D2E/DX2                !
 ! R45   R(30,37)                1.3248         estimate D2E/DX2                !
 ! R46   R(30,38)                1.3203         estimate D2E/DX2                !
 ! R47   R(30,39)                1.3187         estimate D2E/DX2                !
 ! R48   R(40,41)                1.5703         estimate D2E/DX2                !
 ! R49   R(40,56)                1.5569         estimate D2E/DX2                !
 ! R50   R(40,60)                1.1036         estimate D2E/DX2                !
 ! R51   R(40,61)                1.5261         estimate D2E/DX2                !
 ! R52   R(41,42)                1.4774         estimate D2E/DX2                !
 ! R53   R(41,43)                1.4806         estimate D2E/DX2                !
 ! R54   R(41,52)                1.4997         estimate D2E/DX2                !
 ! R55   R(42,50)                1.1561         estimate D2E/DX2                !
 ! R56   R(43,51)                1.1565         estimate D2E/DX2                !
 ! R57   R(44,46)                1.3784         estimate D2E/DX2                !
 ! R58   R(44,47)                1.0893         estimate D2E/DX2                !
 ! R59   R(44,54)                1.3993         estimate D2E/DX2                !
 ! R60   R(45,46)                1.4155         estimate D2E/DX2                !
 ! R61   R(45,48)                1.0919         estimate D2E/DX2                !
 ! R62   R(45,53)                1.314          estimate D2E/DX2                !
 ! R63   R(46,49)                1.0915         estimate D2E/DX2                !
 ! R64   R(52,53)                1.3198         estimate D2E/DX2                !
 ! R65   R(52,54)                1.3377         estimate D2E/DX2                !
 ! R66   R(54,55)                1.091          estimate D2E/DX2                !
 ! R67   R(56,57)                1.1024         estimate D2E/DX2                !
 ! R68   R(56,58)                1.0991         estimate D2E/DX2                !
 ! R69   R(61,62)                1.4042         estimate D2E/DX2                !
 ! R70   R(61,63)                1.3991         estimate D2E/DX2                !
 ! R71   R(62,64)                1.3944         estimate D2E/DX2                !
 ! R72   R(62,65)                1.0939         estimate D2E/DX2                !
 ! R73   R(63,66)                1.3981         estimate D2E/DX2                !
 ! R74   R(63,67)                1.0902         estimate D2E/DX2                !
 ! R75   R(64,68)                1.3969         estimate D2E/DX2                !
 ! R76   R(64,69)                1.0923         estimate D2E/DX2                !
 ! R77   R(66,68)                1.3946         estimate D2E/DX2                !
 ! R78   R(66,70)                1.0925         estimate D2E/DX2                !
 ! R79   R(68,71)                1.0923         estimate D2E/DX2                !
 ! A1    A(2,1,3)              116.8248         estimate D2E/DX2                !
 ! A2    A(2,1,56)             123.9431         estimate D2E/DX2                !
 ! A3    A(3,1,56)             119.0143         estimate D2E/DX2                !
 ! A4    A(1,2,5)              127.2634         estimate D2E/DX2                !
 ! A5    A(1,2,6)              115.3613         estimate D2E/DX2                !
 ! A6    A(5,2,6)              117.3097         estimate D2E/DX2                !
 ! A7    A(1,3,4)              125.9483         estimate D2E/DX2                !
 ! A8    A(1,3,7)              116.6237         estimate D2E/DX2                !
 ! A9    A(4,3,7)              117.3122         estimate D2E/DX2                !
 ! A10   A(3,4,59)             130.8335         estimate D2E/DX2                !
 ! A11   A(2,5,59)             131.3986         estimate D2E/DX2                !
 ! A12   A(2,6,8)              117.8874         estimate D2E/DX2                !
 ! A13   A(3,7,9)              117.736          estimate D2E/DX2                !
 ! A14   A(6,8,10)             106.4268         estimate D2E/DX2                !
 ! A15   A(6,8,11)             110.6441         estimate D2E/DX2                !
 ! A16   A(6,8,12)             110.4442         estimate D2E/DX2                !
 ! A17   A(10,8,11)            110.5326         estimate D2E/DX2                !
 ! A18   A(10,8,12)            109.8118         estimate D2E/DX2                !
 ! A19   A(11,8,12)            108.9638         estimate D2E/DX2                !
 ! A20   A(7,9,13)             106.1664         estimate D2E/DX2                !
 ! A21   A(7,9,14)             110.5291         estimate D2E/DX2                !
 ! A22   A(7,9,15)             110.8022         estimate D2E/DX2                !
 ! A23   A(13,9,14)            110.1574         estimate D2E/DX2                !
 ! A24   A(13,9,15)            110.0903         estimate D2E/DX2                !
 ! A25   A(14,9,15)            109.0712         estimate D2E/DX2                !
 ! A26   A(18,19,22)           105.5684         estimate D2E/DX2                !
 ! A27   A(18,19,23)           118.6335         estimate D2E/DX2                !
 ! A28   A(18,19,30)           104.7852         estimate D2E/DX2                !
 ! A29   A(22,19,23)           117.2493         estimate D2E/DX2                !
 ! A30   A(22,19,30)           103.427          estimate D2E/DX2                !
 ! A31   A(23,19,30)           105.4399         estimate D2E/DX2                !
 ! A32   A(23,19,59)           141.5828         estimate D2E/DX2                !
 ! A33   A(30,19,59)           112.6742         estimate D2E/DX2                !
 ! A34   A(16,20,24)           104.2461         estimate D2E/DX2                !
 ! A35   A(16,20,25)           118.1624         estimate D2E/DX2                !
 ! A36   A(16,20,29)           103.1144         estimate D2E/DX2                !
 ! A37   A(24,20,25)           118.5802         estimate D2E/DX2                !
 ! A38   A(24,20,29)           103.6311         estimate D2E/DX2                !
 ! A39   A(25,20,29)           107.1578         estimate D2E/DX2                !
 ! A40   A(25,20,59)           145.4403         estimate D2E/DX2                !
 ! A41   A(29,20,59)           107.3913         estimate D2E/DX2                !
 ! A42   A(17,21,26)           106.0381         estimate D2E/DX2                !
 ! A43   A(17,21,27)           116.984          estimate D2E/DX2                !
 ! A44   A(17,21,28)           103.9853         estimate D2E/DX2                !
 ! A45   A(26,21,27)           117.3476         estimate D2E/DX2                !
 ! A46   A(26,21,28)           105.388          estimate D2E/DX2                !
 ! A47   A(27,21,28)           105.692          estimate D2E/DX2                !
 ! A48   A(27,21,59)           139.1583         estimate D2E/DX2                !
 ! A49   A(28,21,59)           114.8694         estimate D2E/DX2                !
 ! A50   A(21,28,31)           109.4372         estimate D2E/DX2                !
 ! A51   A(21,28,32)           110.3867         estimate D2E/DX2                !
 ! A52   A(21,28,33)           108.7779         estimate D2E/DX2                !
 ! A53   A(31,28,32)           109.7248         estimate D2E/DX2                !
 ! A54   A(31,28,33)           109.3172         estimate D2E/DX2                !
 ! A55   A(32,28,33)           109.1751         estimate D2E/DX2                !
 ! A56   A(20,29,34)           108.5726         estimate D2E/DX2                !
 ! A57   A(20,29,35)           109.5037         estimate D2E/DX2                !
 ! A58   A(20,29,36)           109.5708         estimate D2E/DX2                !
 ! A59   A(34,29,35)           109.7698         estimate D2E/DX2                !
 ! A60   A(34,29,36)           109.6898         estimate D2E/DX2                !
 ! A61   A(35,29,36)           109.7153         estimate D2E/DX2                !
 ! A62   A(19,30,37)           110.1084         estimate D2E/DX2                !
 ! A63   A(19,30,38)           109.9388         estimate D2E/DX2                !
 ! A64   A(19,30,39)           109.2386         estimate D2E/DX2                !
 ! A65   A(37,30,38)           109.0995         estimate D2E/DX2                !
 ! A66   A(37,30,39)           109.0351         estimate D2E/DX2                !
 ! A67   A(38,30,39)           109.402          estimate D2E/DX2                !
 ! A68   A(41,40,56)           113.4347         estimate D2E/DX2                !
 ! A69   A(41,40,60)           100.2475         estimate D2E/DX2                !
 ! A70   A(41,40,61)           117.9285         estimate D2E/DX2                !
 ! A71   A(56,40,60)           101.8101         estimate D2E/DX2                !
 ! A72   A(56,40,61)           116.6544         estimate D2E/DX2                !
 ! A73   A(60,40,61)           102.9335         estimate D2E/DX2                !
 ! A74   A(40,41,42)           111.9836         estimate D2E/DX2                !
 ! A75   A(40,41,43)           106.7427         estimate D2E/DX2                !
 ! A76   A(40,41,52)           114.2615         estimate D2E/DX2                !
 ! A77   A(42,41,43)           106.4857         estimate D2E/DX2                !
 ! A78   A(42,41,52)           108.8049         estimate D2E/DX2                !
 ! A79   A(43,41,52)           108.1921         estimate D2E/DX2                !
 ! A80   A(46,44,47)           122.7915         estimate D2E/DX2                !
 ! A81   A(46,44,54)           117.6848         estimate D2E/DX2                !
 ! A82   A(47,44,54)           119.4799         estimate D2E/DX2                !
 ! A83   A(46,45,48)           121.7794         estimate D2E/DX2                !
 ! A84   A(46,45,53)           122.4711         estimate D2E/DX2                !
 ! A85   A(48,45,53)           115.747          estimate D2E/DX2                !
 ! A86   A(44,46,45)           118.0293         estimate D2E/DX2                !
 ! A87   A(44,46,49)           121.6372         estimate D2E/DX2                !
 ! A88   A(45,46,49)           120.3303         estimate D2E/DX2                !
 ! A89   A(41,52,53)           115.2952         estimate D2E/DX2                !
 ! A90   A(41,52,54)           120.0093         estimate D2E/DX2                !
 ! A91   A(53,52,54)           124.5462         estimate D2E/DX2                !
 ! A92   A(45,53,52)           117.9382         estimate D2E/DX2                !
 ! A93   A(44,54,52)           119.176          estimate D2E/DX2                !
 ! A94   A(44,54,55)           122.9731         estimate D2E/DX2                !
 ! A95   A(52,54,55)           117.7654         estimate D2E/DX2                !
 ! A96   A(1,56,40)            125.4425         estimate D2E/DX2                !
 ! A97   A(1,56,57)            108.5177         estimate D2E/DX2                !
 ! A98   A(1,56,58)            106.3547         estimate D2E/DX2                !
 ! A99   A(40,56,57)           103.8631         estimate D2E/DX2                !
 ! A100  A(40,56,58)           106.2417         estimate D2E/DX2                !
 ! A101  A(57,56,58)           104.7473         estimate D2E/DX2                !
 ! A102  A(4,59,5)              80.3583         estimate D2E/DX2                !
 ! A103  A(4,59,16)             91.1223         estimate D2E/DX2                !
 ! A104  A(4,59,17)            141.4123         estimate D2E/DX2                !
 ! A105  A(4,59,18)             76.1096         estimate D2E/DX2                !
 ! A106  A(4,59,19)            107.2699         estimate D2E/DX2                !
 ! A107  A(4,59,20)             93.8768         estimate D2E/DX2                !
 ! A108  A(4,59,21)            110.8782         estimate D2E/DX2                !
 ! A109  A(4,59,22)            138.3758         estimate D2E/DX2                !
 ! A110  A(4,59,24)             91.6941         estimate D2E/DX2                !
 ! A111  A(4,59,26)             80.0765         estimate D2E/DX2                !
 ! A112  A(5,59,16)            146.2918         estimate D2E/DX2                !
 ! A113  A(5,59,17)             84.5654         estimate D2E/DX2                !
 ! A114  A(5,59,18)             77.1938         estimate D2E/DX2                !
 ! A115  A(5,59,19)             80.5543         estimate D2E/DX2                !
 ! A116  A(5,59,21)             78.9224         estimate D2E/DX2                !
 ! A117  A(5,59,22)             87.3641         estimate D2E/DX2                !
 ! A118  A(5,59,24)            149.4671         estimate D2E/DX2                !
 ! A119  A(5,59,26)             76.4406         estimate D2E/DX2                !
 ! A120  A(16,59,17)            82.1171         estimate D2E/DX2                !
 ! A121  A(16,59,18)           132.495          estimate D2E/DX2                !
 ! A122  A(16,59,19)           132.8485         estimate D2E/DX2                !
 ! A123  A(16,59,21)            73.801          estimate D2E/DX2                !
 ! A124  A(16,59,22)           118.5864         estimate D2E/DX2                !
 ! A125  A(16,59,24)            62.4281         estimate D2E/DX2                !
 ! A126  A(16,59,26)            69.9601         estimate D2E/DX2                !
 ! A127  A(17,59,18)           134.311          estimate D2E/DX2                !
 ! A128  A(17,59,19)           104.9442         estimate D2E/DX2                !
 ! A129  A(17,59,20)            99.1734         estimate D2E/DX2                !
 ! A130  A(17,59,22)            75.4016         estimate D2E/DX2                !
 ! A131  A(17,59,24)           117.5565         estimate D2E/DX2                !
 ! A132  A(17,59,26)            61.8622         estimate D2E/DX2                !
 ! A133  A(18,59,20)           103.0635         estimate D2E/DX2                !
 ! A134  A(18,59,21)           153.532          estimate D2E/DX2                !
 ! A135  A(18,59,22)            62.3796         estimate D2E/DX2                !
 ! A136  A(18,59,24)            72.2783         estimate D2E/DX2                !
 ! A137  A(18,59,26)           146.9146         estimate D2E/DX2                !
 ! A138  A(19,59,20)           102.818          estimate D2E/DX2                !
 ! A139  A(19,59,21)           132.4224         estimate D2E/DX2                !
 ! A140  A(19,59,24)            73.7242         estimate D2E/DX2                !
 ! A141  A(19,59,26)           154.3178         estimate D2E/DX2                !
 ! A142  A(20,59,21)           101.8828         estimate D2E/DX2                !
 ! A143  A(20,59,22)            98.0647         estimate D2E/DX2                !
 ! A144  A(20,59,26)           101.135          estimate D2E/DX2                !
 ! A145  A(21,59,22)           105.3948         estimate D2E/DX2                !
 ! A146  A(21,59,24)           130.981          estimate D2E/DX2                !
 ! A147  A(22,59,24)            79.1445         estimate D2E/DX2                !
 ! A148  A(22,59,26)           135.2226         estimate D2E/DX2                !
 ! A149  A(24,59,26)           131.4781         estimate D2E/DX2                !
 ! A150  A(40,61,62)           115.4821         estimate D2E/DX2                !
 ! A151  A(40,61,63)           126.3727         estimate D2E/DX2                !
 ! A152  A(62,61,63)           118.106          estimate D2E/DX2                !
 ! A153  A(61,62,64)           121.2501         estimate D2E/DX2                !
 ! A154  A(61,62,65)           119.5009         estimate D2E/DX2                !
 ! A155  A(64,62,65)           119.2462         estimate D2E/DX2                !
 ! A156  A(61,63,66)           120.7741         estimate D2E/DX2                !
 ! A157  A(61,63,67)           120.7446         estimate D2E/DX2                !
 ! A158  A(66,63,67)           118.4679         estimate D2E/DX2                !
 ! A159  A(62,64,68)           120.0923         estimate D2E/DX2                !
 ! A160  A(62,64,69)           119.6068         estimate D2E/DX2                !
 ! A161  A(68,64,69)           120.297          estimate D2E/DX2                !
 ! A162  A(63,66,68)           120.5717         estimate D2E/DX2                !
 ! A163  A(63,66,70)           119.2326         estimate D2E/DX2                !
 ! A164  A(68,66,70)           120.1946         estimate D2E/DX2                !
 ! A165  A(64,68,66)           119.1944         estimate D2E/DX2                !
 ! A166  A(64,68,71)           120.3943         estimate D2E/DX2                !
 ! A167  A(66,68,71)           120.41           estimate D2E/DX2                !
 ! A168  L(41,42,50,48,-1)     183.9499         estimate D2E/DX2                !
 ! A169  L(41,43,51,3,-1)      179.7908         estimate D2E/DX2                !
 ! A170  L(5,59,20,4,-1)       174.2351         estimate D2E/DX2                !
 ! A171  L(41,42,50,48,-2)     178.9801         estimate D2E/DX2                !
 ! A172  L(41,43,51,3,-2)      177.8569         estimate D2E/DX2                !
 ! A173  L(5,59,20,4,-2)       178.4185         estimate D2E/DX2                !
 ! D1    D(3,1,2,5)            -13.2232         estimate D2E/DX2                !
 ! D2    D(3,1,2,6)            163.7306         estimate D2E/DX2                !
 ! D3    D(56,1,2,5)           161.3477         estimate D2E/DX2                !
 ! D4    D(56,1,2,6)           -21.6985         estimate D2E/DX2                !
 ! D5    D(2,1,3,4)             -0.1372         estimate D2E/DX2                !
 ! D6    D(2,1,3,7)           -176.1011         estimate D2E/DX2                !
 ! D7    D(56,1,3,4)          -174.9877         estimate D2E/DX2                !
 ! D8    D(56,1,3,7)             9.0484         estimate D2E/DX2                !
 ! D9    D(2,1,56,40)           45.1475         estimate D2E/DX2                !
 ! D10   D(2,1,56,57)          -78.1208         estimate D2E/DX2                !
 ! D11   D(2,1,56,58)          169.6651         estimate D2E/DX2                !
 ! D12   D(3,1,56,40)         -140.393          estimate D2E/DX2                !
 ! D13   D(3,1,56,57)           96.3386         estimate D2E/DX2                !
 ! D14   D(3,1,56,58)          -15.8754         estimate D2E/DX2                !
 ! D15   D(1,2,5,59)            -0.6411         estimate D2E/DX2                !
 ! D16   D(6,2,5,59)          -177.5432         estimate D2E/DX2                !
 ! D17   D(1,2,6,8)           -179.8831         estimate D2E/DX2                !
 ! D18   D(5,2,6,8)             -2.6113         estimate D2E/DX2                !
 ! D19   D(1,3,4,59)            27.7068         estimate D2E/DX2                !
 ! D20   D(7,3,4,59)          -156.3541         estimate D2E/DX2                !
 ! D21   D(1,3,7,9)           -179.6785         estimate D2E/DX2                !
 ! D22   D(4,3,7,9)              3.9983         estimate D2E/DX2                !
 ! D23   D(3,4,59,5)           -29.8281         estimate D2E/DX2                !
 ! D24   D(3,4,59,16)         -177.0346         estimate D2E/DX2                !
 ! D25   D(3,4,59,17)          -98.3017         estimate D2E/DX2                !
 ! D26   D(3,4,59,18)           49.243          estimate D2E/DX2                !
 ! D27   D(3,4,59,19)           47.0432         estimate D2E/DX2                !
 ! D28   D(3,4,59,20)          151.7534         estimate D2E/DX2                !
 ! D29   D(3,4,59,21)         -103.9623         estimate D2E/DX2                !
 ! D30   D(3,4,59,22)           45.018          estimate D2E/DX2                !
 ! D31   D(3,4,59,24)          120.5187         estimate D2E/DX2                !
 ! D32   D(3,4,59,26)         -107.6059         estimate D2E/DX2                !
 ! D33   D(2,5,59,4)            16.6773         estimate D2E/DX2                !
 ! D34   D(2,5,59,16)           94.0354         estimate D2E/DX2                !
 ! D35   D(2,5,59,17)          161.0277         estimate D2E/DX2                !
 ! D36   D(2,5,59,18)          -61.1359         estimate D2E/DX2                !
 ! D37   D(2,5,59,19)          -92.8058         estimate D2E/DX2                !
 ! D38   D(2,5,59,21)          130.3564         estimate D2E/DX2                !
 ! D39   D(2,5,59,22)         -123.3948         estimate D2E/DX2                !
 ! D40   D(2,5,59,24)          -60.0842         estimate D2E/DX2                !
 ! D41   D(2,5,59,26)           98.6965         estimate D2E/DX2                !
 ! D42   D(2,6,8,10)           172.7323         estimate D2E/DX2                !
 ! D43   D(2,6,8,11)            52.6109         estimate D2E/DX2                !
 ! D44   D(2,6,8,12)           -68.1234         estimate D2E/DX2                !
 ! D45   D(3,7,9,13)           177.3559         estimate D2E/DX2                !
 ! D46   D(3,7,9,14)            57.9054         estimate D2E/DX2                !
 ! D47   D(3,7,9,15)           -63.1249         estimate D2E/DX2                !
 ! D48   D(18,19,30,37)          2.6602         estimate D2E/DX2                !
 ! D49   D(18,19,30,38)       -117.5703         estimate D2E/DX2                !
 ! D50   D(18,19,30,39)        122.3716         estimate D2E/DX2                !
 ! D51   D(22,19,30,37)        113.049          estimate D2E/DX2                !
 ! D52   D(22,19,30,38)         -7.1815         estimate D2E/DX2                !
 ! D53   D(22,19,30,39)       -127.2396         estimate D2E/DX2                !
 ! D54   D(23,19,30,37)       -123.2892         estimate D2E/DX2                !
 ! D55   D(23,19,30,38)        116.4804         estimate D2E/DX2                !
 ! D56   D(23,19,30,39)         -3.5778         estimate D2E/DX2                !
 ! D57   D(59,19,30,37)         61.6301         estimate D2E/DX2                !
 ! D58   D(59,19,30,38)        -58.6004         estimate D2E/DX2                !
 ! D59   D(59,19,30,39)       -178.6585         estimate D2E/DX2                !
 ! D60   D(23,19,59,4)          98.7707         estimate D2E/DX2                !
 ! D61   D(23,19,59,5)         175.5015         estimate D2E/DX2                !
 ! D62   D(23,19,59,16)         -9.6717         estimate D2E/DX2                !
 ! D63   D(23,19,59,17)       -102.7649         estimate D2E/DX2                !
 ! D64   D(23,19,59,20)          0.5291         estimate D2E/DX2                !
 ! D65   D(23,19,59,21)       -119.0741         estimate D2E/DX2                !
 ! D66   D(23,19,59,24)         12.1253         estimate D2E/DX2                !
 ! D67   D(23,19,59,26)       -157.9281         estimate D2E/DX2                !
 ! D68   D(30,19,59,4)         -88.8735         estimate D2E/DX2                !
 ! D69   D(30,19,59,5)         -12.1427         estimate D2E/DX2                !
 ! D70   D(30,19,59,16)        162.6841         estimate D2E/DX2                !
 ! D71   D(30,19,59,17)         69.5909         estimate D2E/DX2                !
 ! D72   D(30,19,59,20)        172.8849         estimate D2E/DX2                !
 ! D73   D(30,19,59,21)         53.2817         estimate D2E/DX2                !
 ! D74   D(30,19,59,24)       -175.5189         estimate D2E/DX2                !
 ! D75   D(30,19,59,26)         14.4277         estimate D2E/DX2                !
 ! D76   D(16,20,29,34)         54.5553         estimate D2E/DX2                !
 ! D77   D(16,20,29,35)        -65.2831         estimate D2E/DX2                !
 ! D78   D(16,20,29,36)        174.3362         estimate D2E/DX2                !
 ! D79   D(24,20,29,34)        -53.8958         estimate D2E/DX2                !
 ! D80   D(24,20,29,35)       -173.7342         estimate D2E/DX2                !
 ! D81   D(24,20,29,36)         65.885          estimate D2E/DX2                !
 ! D82   D(25,20,29,34)        179.9435         estimate D2E/DX2                !
 ! D83   D(25,20,29,35)         60.1051         estimate D2E/DX2                !
 ! D84   D(25,20,29,36)        -60.2757         estimate D2E/DX2                !
 ! D85   D(59,20,29,34)          0.8145         estimate D2E/DX2                !
 ! D86   D(59,20,29,35)       -119.0239         estimate D2E/DX2                !
 ! D87   D(59,20,29,36)        120.5954         estimate D2E/DX2                !
 ! D88   D(25,20,59,4)           0.4752         estimate D2E/DX2                !
 ! D89   D(25,20,59,17)       -143.0906         estimate D2E/DX2                !
 ! D90   D(25,20,59,18)         77.1025         estimate D2E/DX2                !
 ! D91   D(25,20,59,19)        109.173          estimate D2E/DX2                !
 ! D92   D(25,20,59,21)       -111.814          estimate D2E/DX2                !
 ! D93   D(25,20,59,22)        140.4996         estimate D2E/DX2                !
 ! D94   D(25,20,59,26)        -80.1609         estimate D2E/DX2                !
 ! D95   D(29,20,59,4)         179.008          estimate D2E/DX2                !
 ! D96   D(29,20,59,17)         35.4421         estimate D2E/DX2                !
 ! D97   D(29,20,59,18)       -104.3647         estimate D2E/DX2                !
 ! D98   D(29,20,59,19)        -72.2942         estimate D2E/DX2                !
 ! D99   D(29,20,59,21)         66.7188         estimate D2E/DX2                !
 ! D100  D(29,20,59,22)        -40.9676         estimate D2E/DX2                !
 ! D101  D(29,20,59,26)         98.3719         estimate D2E/DX2                !
 ! D102  D(17,21,28,31)        126.1814         estimate D2E/DX2                !
 ! D103  D(17,21,28,32)          5.3202         estimate D2E/DX2                !
 ! D104  D(17,21,28,33)       -114.4458         estimate D2E/DX2                !
 ! D105  D(26,21,28,31)         14.8447         estimate D2E/DX2                !
 ! D106  D(26,21,28,32)       -106.0165         estimate D2E/DX2                !
 ! D107  D(26,21,28,33)        134.2175         estimate D2E/DX2                !
 ! D108  D(27,21,28,31)       -110.0614         estimate D2E/DX2                !
 ! D109  D(27,21,28,32)        129.0774         estimate D2E/DX2                !
 ! D110  D(27,21,28,33)          9.3114         estimate D2E/DX2                !
 ! D111  D(59,21,28,31)         74.8368         estimate D2E/DX2                !
 ! D112  D(59,21,28,32)        -46.0244         estimate D2E/DX2                !
 ! D113  D(59,21,28,33)       -165.7904         estimate D2E/DX2                !
 ! D114  D(27,21,59,4)          87.6384         estimate D2E/DX2                !
 ! D115  D(27,21,59,5)          12.5506         estimate D2E/DX2                !
 ! D116  D(27,21,59,16)        172.5335         estimate D2E/DX2                !
 ! D117  D(27,21,59,18)        -13.2921         estimate D2E/DX2                !
 ! D118  D(27,21,59,19)        -53.5298         estimate D2E/DX2                !
 ! D119  D(27,21,59,20)       -173.4908         estimate D2E/DX2                !
 ! D120  D(27,21,59,22)        -71.5654         estimate D2E/DX2                !
 ! D121  D(27,21,59,24)       -160.4447         estimate D2E/DX2                !
 ! D122  D(28,21,59,4)         -99.5827         estimate D2E/DX2                !
 ! D123  D(28,21,59,5)        -174.6706         estimate D2E/DX2                !
 ! D124  D(28,21,59,16)        -14.6876         estimate D2E/DX2                !
 ! D125  D(28,21,59,18)        159.4868         estimate D2E/DX2                !
 ! D126  D(28,21,59,19)        119.2491         estimate D2E/DX2                !
 ! D127  D(28,21,59,20)         -0.7119         estimate D2E/DX2                !
 ! D128  D(28,21,59,22)        101.2134         estimate D2E/DX2                !
 ! D129  D(28,21,59,24)         12.3342         estimate D2E/DX2                !
 ! D130  D(56,40,41,42)        178.9749         estimate D2E/DX2                !
 ! D131  D(56,40,41,43)         62.8062         estimate D2E/DX2                !
 ! D132  D(56,40,41,52)        -56.7445         estimate D2E/DX2                !
 ! D133  D(60,40,41,42)         71.2139         estimate D2E/DX2                !
 ! D134  D(60,40,41,43)        -44.9548         estimate D2E/DX2                !
 ! D135  D(60,40,41,52)       -164.5055         estimate D2E/DX2                !
 ! D136  D(61,40,41,42)        -39.4733         estimate D2E/DX2                !
 ! D137  D(61,40,41,43)       -155.642          estimate D2E/DX2                !
 ! D138  D(61,40,41,52)         84.8073         estimate D2E/DX2                !
 ! D139  D(41,40,56,1)          59.9209         estimate D2E/DX2                !
 ! D140  D(41,40,56,57)       -174.8258         estimate D2E/DX2                !
 ! D141  D(41,40,56,58)        -64.6447         estimate D2E/DX2                !
 ! D142  D(60,40,56,1)         166.7024         estimate D2E/DX2                !
 ! D143  D(60,40,56,57)        -68.0443         estimate D2E/DX2                !
 ! D144  D(60,40,56,58)         42.1367         estimate D2E/DX2                !
 ! D145  D(61,40,56,1)         -82.148          estimate D2E/DX2                !
 ! D146  D(61,40,56,57)         43.1053         estimate D2E/DX2                !
 ! D147  D(61,40,56,58)        153.2864         estimate D2E/DX2                !
 ! D148  D(41,40,61,62)        159.5252         estimate D2E/DX2                !
 ! D149  D(41,40,61,63)        -18.1404         estimate D2E/DX2                !
 ! D150  D(56,40,61,62)        -60.1441         estimate D2E/DX2                !
 ! D151  D(56,40,61,63)        122.1903         estimate D2E/DX2                !
 ! D152  D(60,40,61,62)         50.3577         estimate D2E/DX2                !
 ! D153  D(60,40,61,63)       -127.3079         estimate D2E/DX2                !
 ! D154  D(40,41,52,53)        -93.7229         estimate D2E/DX2                !
 ! D155  D(40,41,52,54)         82.035          estimate D2E/DX2                !
 ! D156  D(42,41,52,53)         32.2382         estimate D2E/DX2                !
 ! D157  D(42,41,52,54)       -152.0039         estimate D2E/DX2                !
 ! D158  D(43,41,52,53)        147.5445         estimate D2E/DX2                !
 ! D159  D(43,41,52,54)        -36.6976         estimate D2E/DX2                !
 ! D160  D(47,44,46,45)        178.4849         estimate D2E/DX2                !
 ! D161  D(47,44,46,49)         -0.8706         estimate D2E/DX2                !
 ! D162  D(54,44,46,45)         -3.9363         estimate D2E/DX2                !
 ! D163  D(54,44,46,49)        176.7082         estimate D2E/DX2                !
 ! D164  D(46,44,54,52)          1.2448         estimate D2E/DX2                !
 ! D165  D(46,44,54,55)        177.8055         estimate D2E/DX2                !
 ! D166  D(47,44,54,52)        178.9067         estimate D2E/DX2                !
 ! D167  D(47,44,54,55)         -4.5325         estimate D2E/DX2                !
 ! D168  D(48,45,46,44)       -176.8071         estimate D2E/DX2                !
 ! D169  D(48,45,46,49)          2.5571         estimate D2E/DX2                !
 ! D170  D(53,45,46,44)          3.7802         estimate D2E/DX2                !
 ! D171  D(53,45,46,49)       -176.8556         estimate D2E/DX2                !
 ! D172  D(46,45,53,52)         -0.5966         estimate D2E/DX2                !
 ! D173  D(48,45,53,52)        179.9578         estimate D2E/DX2                !
 ! D174  D(41,52,53,45)        173.0956         estimate D2E/DX2                !
 ! D175  D(54,52,53,45)         -2.4442         estimate D2E/DX2                !
 ! D176  D(41,52,54,44)       -173.2218         estimate D2E/DX2                !
 ! D177  D(41,52,54,55)         10.0387         estimate D2E/DX2                !
 ! D178  D(53,52,54,44)          2.1208         estimate D2E/DX2                !
 ! D179  D(53,52,54,55)       -174.6187         estimate D2E/DX2                !
 ! D180  D(40,61,62,64)       -179.0947         estimate D2E/DX2                !
 ! D181  D(40,61,62,65)          0.2904         estimate D2E/DX2                !
 ! D182  D(63,61,62,64)         -1.2255         estimate D2E/DX2                !
 ! D183  D(63,61,62,65)        178.1597         estimate D2E/DX2                !
 ! D184  D(40,61,63,66)        178.273          estimate D2E/DX2                !
 ! D185  D(40,61,63,67)         -3.0743         estimate D2E/DX2                !
 ! D186  D(62,61,63,66)          0.662          estimate D2E/DX2                !
 ! D187  D(62,61,63,67)        179.3147         estimate D2E/DX2                !
 ! D188  D(61,62,64,68)          0.867          estimate D2E/DX2                !
 ! D189  D(61,62,64,69)       -179.8451         estimate D2E/DX2                !
 ! D190  D(65,62,64,68)       -178.5197         estimate D2E/DX2                !
 ! D191  D(65,62,64,69)          0.7682         estimate D2E/DX2                !
 ! D192  D(61,63,66,68)          0.2579         estimate D2E/DX2                !
 ! D193  D(61,63,66,70)        179.8753         estimate D2E/DX2                !
 ! D194  D(67,63,66,68)       -178.4248         estimate D2E/DX2                !
 ! D195  D(67,63,66,70)          1.1925         estimate D2E/DX2                !
 ! D196  D(62,64,68,66)          0.0793         estimate D2E/DX2                !
 ! D197  D(62,64,68,71)        179.6846         estimate D2E/DX2                !
 ! D198  D(69,64,68,66)       -179.2036         estimate D2E/DX2                !
 ! D199  D(69,64,68,71)          0.4016         estimate D2E/DX2                !
 ! D200  D(63,66,68,64)         -0.6351         estimate D2E/DX2                !
 ! D201  D(63,66,68,71)        179.7598         estimate D2E/DX2                !
 ! D202  D(70,66,68,64)        179.7512         estimate D2E/DX2                !
 ! D203  D(70,66,68,71)          0.1461         estimate D2E/DX2                !
 --------------------------------------------------------------------------------
 Trust Radius=3.00D-01 FncErr=1.00D-07 GrdErr=1.00D-06 EigMax=2.50D+02 EigMin=1.00D-04
 Number of steps in this run=    426 maximum allowed number of steps=    426.
 GradGradGradGradGradGradGradGradGradGradGradGradGradGradGradGradGradGrad

 Leave Link  103 at Tue Feb 18 00:15:39 2025, MaxMem= 82678120448 cpu:               2.3 elap:               0.3
 (Enter /sysapps/ubuntu-applications/gaussian-new/avx/g16/l202.exe)
 Stoichiometry    C23H18F9N4O13S3Sc
 Framework group  C1[X(C23H18F9N4O13S3Sc)]
 Deg. of freedom   207
 Full point group                 C1      NOp   1
 Largest Abelian subgroup         C1      NOp   1
 Largest concise Abelian subgroup C1      NOp   1
                         Standard orientation:                         
 ---------------------------------------------------------------------
 Center     Atomic      Atomic             Coordinates (Angstroms)
 Number     Number       Type             X           Y           Z
 ---------------------------------------------------------------------
      1          6           0       -1.696688    0.118947    1.213511
      2          6           0       -1.365678    0.200802   -0.160793
      3          6           0       -0.640993   -0.192153    2.108924
      4          8           0        0.566872   -0.404975    1.789775
      5          8           0       -0.211558    0.257186   -0.666253
      6          8           0       -2.394757    0.155459   -0.996819
      7          8           0       -0.970240   -0.346792    3.386856
      8          6           0       -2.122414    0.231161   -2.394707
      9          6           0        0.073567   -0.653026    4.308676
     10          1           0       -3.073778    0.045480   -2.906340
     11          1           0       -1.374856   -0.521229   -2.685384
     12          1           0       -1.746278    1.228489   -2.658747
     13          1           0       -0.394609   -0.690634    5.297936
     14          1           0        0.848262    0.125370    4.285879
     15          1           0        0.531971   -1.622795    4.070981
     16          8           0        3.455499   -0.954683    0.869248
     17          8           0        2.380199   -0.333916   -1.797962
     18          8           0        0.664414    2.238519    1.087524
     19         16           0        1.220741    3.091867    0.007983
     20         16           0        4.149302    0.130750    1.629445
     21         16           0        2.004191   -1.782455   -1.771695
     22          8           0        2.035081    2.173072   -0.851722
     23          8           0        1.810059    4.358424    0.363164
     24          8           0        3.184474    1.268915    1.607466
     25          8           0        4.782610   -0.210884    2.875602
     26          8           0        1.378831   -2.019439   -0.448238
     27          8           0        1.317998   -2.303855   -2.934094
     28          6           0        3.645616   -2.674158   -1.711422
     29          6           0        5.477341    0.665859    0.474593
     30          6           0       -0.247577    3.511413   -1.073665
     31          9           0        3.656765   -3.504121   -0.686751
     32          9           0        4.634079   -1.809418   -1.594448
     33          9           0        3.798700   -3.359470   -2.830662
     34          9           0        4.925123    0.985887   -0.682602
     35          9           0        6.335151   -0.321660    0.301805
     36          9           0        6.101518    1.715265    0.974638
     37          9           0       -1.354139    2.995152   -0.559763
     38          9           0       -0.066625    3.024076   -2.287264
     39          9           0       -0.376118    4.822003   -1.142562
     40          6           0       -4.428619    0.001832    1.177692
     41          6           0       -4.590936   -1.558643    1.111865
     42          6           0       -5.902806   -1.955451    0.560167
     43          6           0       -4.556152   -2.050352    2.507983
     44          6           0       -1.297047   -3.057040    0.159163
     45          6           0       -2.820125   -2.964752   -1.687234
     46          6           0       -1.523898   -3.237933   -1.188344
     47          1           0       -0.336968   -3.266672    0.629147
     48          1           0       -3.081471   -3.135813   -2.733537
     49          1           0       -0.738319   -3.591072   -1.858858
     50          7           0       -6.960526   -2.256986    0.203924
     51          7           0       -4.541356   -2.395869    3.611540
     52          7           0       -3.511007   -2.258578    0.341917
     53          7           0       -3.779675   -2.481190   -0.930928
     54          6           0       -2.341523   -2.534408    0.929866
     55          1           0       -2.268158   -2.388792    2.008573
     56          6           0       -3.066512    0.457885    1.778173
     57          1           0       -3.158592    1.554772    1.838829
     58          1           0       -3.062699    0.119194    2.823774
     59         21           0        1.672440    0.275827    0.209388
     60          1           0       -5.127563    0.237468    1.998572
     61          6           0       -4.975340    0.826977    0.016112
     62          6           0       -5.218281    2.180905    0.298499
     63          6           0       -5.291875    0.353058   -1.261693
     64          6           0       -5.735737    3.040289   -0.669979
     65          1           0       -5.007650    2.568620    1.299450
     66          6           0       -5.821654    1.209611   -2.231413
     67          1           0       -5.110677   -0.687721   -1.530795
     68          6           0       -6.040219    2.556831   -1.944692
     69          1           0       -5.911942    4.089347   -0.421896
     70          1           0       -6.057804    0.813267   -3.221706
     71          1           0       -6.450578    3.224517   -2.705505
 ---------------------------------------------------------------------
 Rotational constants (GHZ):           0.0812899           0.0386766           0.0344915
 Leave Link  202 at Tue Feb 18 00:15:39 2025, MaxMem= 82678120448 cpu:               4.7 elap:               0.5
 (Enter /sysapps/ubuntu-applications/gaussian-new/avx/g16/l301.exe)
 General basis read from cards:  (5D, 7F)
 Centers:      10     11     12     13     14     15     47     48     49     55
 Centers:      57     58     60     65     67     69     70     71
 S 3 1.00
     Exponent=  1.3010701000D+01 Coefficients=  1.9682158000D-02
     Exponent=  1.9622572000D+00 Coefficients=  1.3796524000D-01
     Exponent=  4.4453796000D-01 Coefficients=  4.7831935000D-01
 S 1 1.00
     Exponent=  1.2194962000D-01 Coefficients=  1.0000000000D+00
 P 1 1.00
     Exponent=  8.0000000000D-01 Coefficients=  1.0000000000D+00
 ****
 Centers:       1      2      3      8      9     28     29     30     40     41
 Centers:      42     43     44     45     46     54     56     61     62     63
 Centers:      64     66     68
 S 5 1.00
     Exponent=  1.2384016938D+03 Coefficients=  5.4568832082D-03
     Exponent=  1.8629004992D+02 Coefficients=  4.0638409211D-02
     Exponent=  4.2251176346D+01 Coefficients=  1.8025593888D-01
     Exponent=  1.1676557932D+01 Coefficients=  4.6315121755D-01
     Exponent=  3.5930506482D+00 Coefficients=  4.4087173314D-01
 S 1 1.00
     Exponent=  4.0245147363D-01 Coefficients=  1.0000000000D+00
 S 1 1.00
     Exponent=  1.3090182668D-01 Coefficients=  1.0000000000D+00
 P 3 1.00
     Exponent=  9.4680970621D+00 Coefficients=  3.8387871728D-02
     Exponent=  2.0103545142D+00 Coefficients=  2.1117025112D-01
     Exponent=  5.4771004707D-01 Coefficients=  5.1328172114D-01
 P 1 1.00
     Exponent=  1.5268613795D-01 Coefficients=  1.0000000000D+00
 D 1 1.00
     Exponent=  8.0000000000D-01 Coefficients=  1.0000000000D+00
 ****
 Centers:      50     51     52     53
 S 5 1.00
     Exponent=  1.7128415853D+03 Coefficients= -5.3934125305D-03
     Exponent=  2.5764812677D+02 Coefficients= -4.0221581118D-02
     Exponent=  5.8458245853D+01 Coefficients= -1.7931144990D-01
     Exponent=  1.6198367905D+01 Coefficients= -4.6376317823D-01
     Exponent=  5.0052600809D+00 Coefficients= -4.4171422662D-01
 S 1 1.00
     Exponent=  5.8731856571D-01 Coefficients=  1.0000000000D+00
 S 1 1.00
     Exponent=  1.8764592253D-01 Coefficients=  1.0000000000D+00
 P 3 1.00
     Exponent=  1.3571470233D+01 Coefficients= -4.0072398852D-02
     Exponent=  2.9257372874D+00 Coefficients= -2.1807045028D-01
     Exponent=  7.9927750754D-01 Coefficients= -5.1294466049D-01
 P 1 1.00
     Exponent=  2.1954348034D-01 Coefficients=  1.0000000000D+00
 D 1 1.00
     Exponent=  1.0000000000D+00 Coefficients=  1.0000000000D+00
 ****
 Centers:       4      5      6      7     16     17     18     22     23     24
 Centers:      25     26     27
 S 5 1.00
     Exponent=  2.2661767785D+03 Coefficients= -5.3431809926D-03
     Exponent=  3.4087010191D+02 Coefficients= -3.9890039230D-02
     Exponent=  7.7363135167D+01 Coefficients= -1.7853911985D-01
     Exponent=  2.1479644940D+01 Coefficients= -4.6427684959D-01
     Exponent=  6.6589433124D+00 Coefficients= -4.4309745172D-01
 S 1 1.00
     Exponent=  8.0975975668D-01 Coefficients=  1.0000000000D+00
 S 1 1.00
     Exponent=  2.5530772234D-01 Coefficients=  1.0000000000D+00
 P 3 1.00
     Exponent=  1.7721504317D+01 Coefficients=  4.3394573193D-02
     Exponent=  3.8635505440D+00 Coefficients=  2.3094120765D-01
     Exponent=  1.0480920883D+00 Coefficients=  5.1375311064D-01
 P 1 1.00
     Exponent=  2.7641544411D-01 Coefficients=  1.0000000000D+00
 D 1 1.00
     Exponent=  1.2000000000D+00 Coefficients=  1.0000000000D+00
 ****
 Centers:      31     32     33     34     35     36     37     38     39
 S 5 1.00
     Exponent=  2.8948325990D+03 Coefficients= -5.3408255515D-03
     Exponent=  4.3541939120D+02 Coefficients= -3.9904258866D-02
     Exponent=  9.8843328866D+01 Coefficients= -1.7912768038D-01
     Exponent=  2.7485198001D+01 Coefficients= -4.6758090825D-01
     Exponent=  8.5405498171D+00 Coefficients= -4.4653131020D-01
 S 1 1.00
     Exponent=  1.0654578038D+00 Coefficients=  1.0000000000D+00
 S 1 1.00
     Exponent=  3.3247346748D-01 Coefficients=  1.0000000000D+00
 P 3 1.00
     Exponent=  2.2696633924D+01 Coefficients= -4.5212874436D-02
     Exponent=  4.9872339257D+00 Coefficients= -2.3754317067D-01
     Exponent=  1.3491613954D+00 Coefficients= -5.1287353587D-01
 P 1 1.00
     Exponent=  3.4829881977D-01 Coefficients=  1.0000000000D+00
 D 1 1.00
     Exponent=  1.4000000000D+00 Coefficients=  1.0000000000D+00
 ****
 Centers:      19     20     21
 S 5 1.00
     Exponent=  9.1849303010D+03 Coefficients= -2.2294387756D-03
     Exponent=  1.3815105503D+03 Coefficients= -1.6683029937D-02
     Exponent=  3.1387147580D+02 Coefficients= -7.5262436116D-02
     Exponent=  8.8053870623D+01 Coefficients= -1.9376827038D-01
     Exponent=  2.7039914905D+01 Coefficients= -1.7718020803D-01
 S 3 1.00
     Exponent=  4.5648731303D+01 Coefficients= -1.0736062573D-01
     Exponent=  4.9664522326D+00 Coefficients=  6.5066293018D-01
     Exponent=  2.0116242047D+00 Coefficients=  5.9712155354D-01
 S 1 1.00
     Exponent=  3.5661077013D-01 Coefficients=  1.0000000000D+00
 S 1 1.00
     Exponent=  1.3507221477D-01 Coefficients=  1.0000000000D+00
 P 5 1.00
     Exponent=  2.6198233439D+02 Coefficients= -9.2729929822D-03
     Exponent=  6.1306894736D+01 Coefficients= -6.6547669241D-02
     Exponent=  1.9103729887D+01 Coefficients= -2.4828595903D-01
     Exponent=  6.6567720378D+00 Coefficients= -4.8703847402D-01
     Exponent=  2.3959635161D+00 Coefficients= -3.9337850312D-01
 P 1 1.00
     Exponent=  6.1776161679D-01 Coefficients=  1.0000000000D+00
 P 1 1.00
     Exponent=  1.6993376871D-01 Coefficients=  1.0000000000D+00
 D 1 1.00
     Exponent=  5.5000000000D-01 Coefficients=  1.0000000000D+00
 ****
 Centers:      59
 S 8 1.00
     Exponent=  1.9161291874D+05 Coefficients=  2.3076475942D-04
     Exponent=  2.8723850363D+04 Coefficients=  1.7890329946D-03
     Exponent=  6.5370116490D+03 Coefficients=  9.2990401140D-03
     Exponent=  1.8503097171D+03 Coefficients=  3.7739438011D-02
     Exponent=  6.0238855156D+02 Coefficients=  1.2227148359D-01
     Exponent=  2.1617324766D+02 Coefficients=  2.8814821470D-01
     Exponent=  8.3712517880D+01 Coefficients=  4.0517543099D-01
     Exponent=  3.2908707189D+01 Coefficients=  2.0566019623D-01
 S 4 1.00
     Exponent=  2.1134393234D+02 Coefficients= -2.4527991462D-02
     Exponent=  6.5128920139D+01 Coefficients= -1.1570158142D-01
     Exponent=  1.0034311535D+01 Coefficients=  5.5995283317D-01
     Exponent=  4.1596884597D+00 Coefficients=  5.6087765073D-01
 S 2 1.00
     Exponent=  6.0009041613D+00 Coefficients= -2.2840494325D-01
     Exponent=  9.8255784150D-01 Coefficients=  7.1948970378D-01
 S 1 1.00
     Exponent=  4.2483192773D-01 Coefficients=  1.0000000000D+00
 S 1 1.00
     Exponent=  7.7185462096D-02 Coefficients=  1.0000000000D+00
 S 1 1.00
     Exponent=  3.0147219702D-02 Coefficients=  1.0000000000D+00
 P 6 1.00
     Exponent=  9.4734122823D+02 Coefficients=  2.4737208744D-03
     Exponent=  2.2409699732D+02 Coefficients=  1.9742967060D-02
     Exponent=  7.1560334882D+01 Coefficients=  9.0357147549D-02
     Exponent=  2.6444824490D+01 Coefficients=  2.5201602503D-01
     Exponent=  1.0393798285D+01 Coefficients=  3.9675535929D-01
     Exponent=  4.1606304559D+00 Coefficients=  2.3208624517D-01
 P 3 1.00
     Exponent=  1.5565737135D+01 Coefficients= -2.7129423974D-02
     Exponent=  2.1121544865D+00 Coefficients=  5.5109256629D-01
     Exponent=  8.4184709021D-01 Coefficients=  1.0090635806D+00
 P 1 1.00
     Exponent=  3.2297542652D-01 Coefficients=  1.0000000000D+00
 P 1 1.00
     Exponent=  8.9748000000D-02 Coefficients=  1.0000000000D+00
 D 4 1.00
     Exponent=  3.0989390993D+01 Coefficients=  1.1902837431D-02
     Exponent=  8.6905465069D+00 Coefficients=  6.7655856850D-02
     Exponent=  2.9520256337D+00 Coefficients=  2.1332539722D-01
     Exponent=  1.0761910745D+00 Coefficients=  3.8391075578D-01
 D 1 1.00
     Exponent=  3.8338915095D-01 Coefficients=  4.3354716259D-01
 D 1 1.00
     Exponent=  1.2534686113D-01 Coefficients=  2.4509263822D-01
 D 1 1.00
     Exponent=  4.1000000000D-02 Coefficients=  1.0000000000D+00
 F 1 1.00
     Exponent=  3.4500000000D-01 Coefficients=  1.0000000000D+00
 ****
 Ernie: Thresh=  0.10000D-02 Tol=  0.10000D-05 Strict=F.
 There are   934 symmetry adapted cartesian basis functions of A   symmetry.
 There are   875 symmetry adapted basis functions of A   symmetry.
   875 basis functions,  1564 primitive gaussians,   934 cartesian basis functions
   219 alpha electrons      219 beta electrons
       nuclear repulsion energy     10750.6747306318 Hartrees.
 IExCor= 7252 DFT=T Ex+Corr=MN15 ExCW=0 ScaHFX=  0.440000
 ScaDFX=  1.000000  1.000000  1.000000  1.000000 ScalE2=  1.000000  1.000000
 IRadAn=      5 IRanWt=     -1 IRanGd=            0 ICorTp=0 IEmpDi=  4
 NAtoms=   71 NActive=   71 NUniq=   71 SFac= 1.00D+00 NAtFMM=   60 NAOKFM=T Big=T
 Integral buffers will be    131072 words long.
 Raffenetti 2 integral format.
 Two-electron integral symmetry is turned on.
 ------------------------------------------------------------------------------
 Polarizable Continuum Model (PCM)
 =================================
 Model                : PCM.
 Atomic radii         : SMD-Coulomb.
 Polarization charges : Total charges.
 Charge compensation  : None.
 Solution method      : On-the-fly selection.
 Cavity type          : VdW (van der Waals Surface) (Alpha=1.000).
 Cavity algorithm     : GePol (No added spheres)
                        Default sphere list used, NSphG=   71.
                        Lebedev-Laikov grids with approx.  5.0 points / Ang**2.
                        Smoothing algorithm: York/Karplus (Gamma=1.0000).
                        Polarization charges: spherical gaussians, with
                                              point-specific exponents (IZeta= 3).
                        Self-potential: point-specific (ISelfS= 7).
                        Self-field    : sphere-specific E.n sum rule (ISelfD= 2).
 1st derivatives      : Analytical E(r).r(x)/FMM algorithm (CHGder, D1EAlg=3).
                        Cavity 1st derivative terms included.
 Solvent              : DiChloroEthane, Eps=  10.125000 Eps(inf)=   2.087447
 ------------------------------------------------------------------------------
 GePol: Number of generator spheres                  =      71
 GePol: Total number of spheres                      =      71
 GePol: Number of exposed spheres                    =      70 ( 98.59%)
 GePol: Number of points                             =    4860
 GePol: Average weight of points                     =       0.13
 GePol: Minimum weight of points                     =   0.26D-10
 GePol: Maximum weight of points                     =    0.21501
 GePol: Number of points with low weight             =     326
 GePol: Fraction of low-weight points (<1% of avg)   =       6.71%
 GePol: Cavity surface area                          =    618.856 Ang**2
 GePol: Cavity volume                                =    762.053 Ang**3
 ------------------------------------------------------------------------------
 Atomic radii for non-electrostatic terms: SMD-CDS.
 ------------------------------------------------------------------------------
 PCM non-electrostatic energy =         0.0058153201 Hartrees.
 Nuclear repulsion after PCM non-electrostatic terms =    10750.6805459518 Hartrees.
 Leave Link  301 at Tue Feb 18 00:15:40 2025, MaxMem= 82678120448 cpu:               4.1 elap:               0.4
 (Enter /sysapps/ubuntu-applications/gaussian-new/avx/g16/l302.exe)
 NPDir=0 NMtPBC=     1 NCelOv=     1 NCel=       1 NClECP=     1 NCelD=      1
         NCelK=      1 NCelE2=     1 NClLst=     1 CellRange=     0.0.
 One-electron integrals computed using PRISM.
 One-electron integral symmetry used in STVInt
 NBasis=   875 RedAO= T EigKep=  1.88D-04  NBF=   875
 NBsUse=   875 1.00D-06 EigRej= -1.00D+00 NBFU=   875
 Precomputing XC quadrature grid using
 IXCGrd= 4 IRadAn=           5 IRanWt=          -1 IRanGd=           0 AccXCQ= 0.00D+00.
 Generated NRdTot=       0 NPtTot=           0 NUsed=           0 NTot=          32
 NSgBfM=   893   892   892   893   893 MxSgAt=    71 MxSgA2=    71.
 Leave Link  302 at Tue Feb 18 00:16:26 2025, MaxMem= 82678120448 cpu:             462.9 elap:              46.3
 (Enter /sysapps/ubuntu-applications/gaussian-new/avx/g16/l303.exe)
 DipDrv:  MaxL=1.
 Leave Link  303 at Tue Feb 18 00:16:27 2025, MaxMem= 82678120448 cpu:              12.9 elap:               1.4
 (Enter /sysapps/ubuntu-applications/gaussian-new/avx/g16/l401.exe)
 ExpMin= 3.01D-02 ExpMax= 1.92D+05 ExpMxC= 1.85D+03 IAcc=3 IRadAn=         5 AccDes= 0.00D+00
 Harris functional with IExCor= 1009 and IRadAn=       5 diagonalized for initial guess.
 HarFok:  IExCor= 1009 AccDes= 0.00D+00 IRadAn=         5 IDoV= 1 UseB2=F ITyADJ=14
 ICtDFT=  3500011 ScaDFX=  1.000000  1.000000  1.000000  1.000000
 FoFCou: FMM=F IPFlag=           0 FMFlag=      100000 FMFlg1=        2001
         NFxFlg=           0 DoJE=T BraDBF=F KetDBF=T FulRan=T
         wScrn=  0.000000 ICntrl=       500 IOpCl=  0 I1Cent=   200000004 NGrid=           0
         NMat0=    1 NMatS0=      1 NMatT0=    0 NMatD0=    1 NMtDS0=    0 NMtDT0=    0
 Petite list used in FoFCou.
 Harris En= -4932.10587364629    
 JPrj=0 DoOrth=F DoCkMO=F.
 Leave Link  401 at Tue Feb 18 00:17:08 2025, MaxMem= 82678120448 cpu:             406.1 elap:              40.7
 (Enter /sysapps/ubuntu-applications/gaussian-new/avx/g16/l502.exe)
 Integral symmetry usage will be decided dynamically.
 Closed shell SCF:
 Using DIIS extrapolation, IDIIS=  1040.
 NGot= 82678120448 LenX= 82676343087 LenY= 82675469797
 Requested convergence on RMS density matrix=1.00D-08 within 500 cycles.
 Requested convergence on MAX density matrix=1.00D-06.
 Requested convergence on             energy=1.00D-06.
 No special actions if energy rises.
 Fock matrices will be formed incrementally for  20 cycles.

 Cycle   1  Pass 1  IDiag  1:
 FoFJK:  IHMeth= 1 ICntrl=       0 DoSepK=F KAlg= 0 I1Cent=           0 FoldK=F
 IRaf= 840000000 NMat=       1 IRICut=       1 DoRegI=T DoRafI=F ISym2E= 0 IDoP0=0 IntGTp=1.
 FoFCou: FMM=T IPFlag=           0 FMFlag=      100000 FMFlg1=        2001
         NFxFlg=           0 DoJE=F BraDBF=F KetDBF=F FulRan=T
         wScrn=  0.000000 ICntrl=         0 IOpCl=  0 I1Cent=           0 NGrid=           0
         NMat0=    1 NMatS0=      1 NMatT0=    0 NMatD0=    1 NMtDS0=    0 NMtDT0=    0
 Symmetry not used in FoFCou.
 FMM levels:  10  Number of levels for PrismC:   9
 Inv3:  Mode=1 IEnd=    70858800.
 Iteration    1 A*A^-1 deviation from unit magnitude is 5.66D-15 for   4842.
 Iteration    1 A*A^-1 deviation from orthogonality  is 2.64D-15 for   4841   4368.
 Iteration    1 A^-1*A deviation from unit magnitude is 5.66D-15 for   4842.
 Iteration    1 A^-1*A deviation from orthogonality  is 1.89D-15 for   2114    579.
 E= -4930.39918704869    
 DIIS: error= 2.49D-02 at cycle   1 NSaved=   1.
 NSaved= 1 IEnMin= 1 EnMin= -4930.39918704869     IErMin= 1 ErrMin= 2.49D-02
 ErrMax= 2.49D-02  0.00D+00 EMaxC= 1.00D-01 BMatC= 1.99D+00 BMatP= 1.99D+00
 IDIUse=3 WtCom= 7.51D-01 WtEn= 2.49D-01
 Coeff-Com:  0.100D+01
 Coeff-En:   0.100D+01
 Coeff:      0.100D+01
 Gap=     0.094 Goal=   None    Shift=    0.000
 GapD=    0.094 DampG=0.500 DampE=0.250 DampFc=0.1250 IDamp=-1.
 Damping current iteration by 1.25D-01
 RMSDP=3.75D-03 MaxDP=3.51D-01              OVMax= 3.97D-01

 Cycle   2  Pass 1  IDiag  1:
 RMSU=  4.68D-04    CP:  9.99D-01
 E= -4930.75999768495     Delta-E=       -0.360810636261 Rises=F Damp=T
 DIIS: error= 1.80D-02 at cycle   2 NSaved=   2.
 NSaved= 2 IEnMin= 2 EnMin= -4930.75999768495     IErMin= 2 ErrMin= 1.80D-02
 ErrMax= 1.80D-02  0.00D+00 EMaxC= 1.00D-01 BMatC= 9.73D-01 BMatP= 1.99D+00
 IDIUse=3 WtCom= 8.20D-01 WtEn= 1.80D-01
 Coeff-Com: -0.212D+01 0.312D+01
 Coeff-En:   0.000D+00 0.100D+01
 Coeff:     -0.174D+01 0.274D+01
 Gap=     0.157 Goal=   None    Shift=    0.000
 RMSDP=1.41D-03 MaxDP=9.34D-02 DE=-3.61D-01 OVMax= 3.17D-01

 Cycle   3  Pass 1  IDiag  1:
 RMSU=  8.52D-04    CP:  9.92D-01  3.00D+00
 E= -4931.87346892386     Delta-E=       -1.113471238905 Rises=F Damp=F
 DIIS: error= 6.03D-03 at cycle   3 NSaved=   3.
 NSaved= 3 IEnMin= 3 EnMin= -4931.87346892386     IErMin= 3 ErrMin= 6.03D-03
 ErrMax= 6.03D-03  0.00D+00 EMaxC= 1.00D-01 BMatC= 5.26D-02 BMatP= 9.73D-01
 IDIUse=3 WtCom= 9.40D-01 WtEn= 6.03D-02
 Coeff-Com: -0.688D+00 0.107D+01 0.623D+00
 Coeff-En:   0.000D+00 0.000D+00 0.100D+01
 Coeff:     -0.646D+00 0.100D+01 0.645D+00
 Gap=     0.153 Goal=   None    Shift=    0.000
 RMSDP=4.09D-04 MaxDP=3.92D-02 DE=-1.11D+00 OVMax= 4.41D-02

 Cycle   4  Pass 1  IDiag  1:
 RMSU=  3.52D-04    CP:  9.94D-01  3.00D+00  7.58D-01
 E= -4931.90155612091     Delta-E=       -0.028087197054 Rises=F Damp=F
 DIIS: error= 4.51D-03 at cycle   4 NSaved=   4.
 NSaved= 4 IEnMin= 4 EnMin= -4931.90155612091     IErMin= 4 ErrMin= 4.51D-03
 ErrMax= 4.51D-03  0.00D+00 EMaxC= 1.00D-01 BMatC= 2.45D-02 BMatP= 5.26D-02
 IDIUse=3 WtCom= 9.55D-01 WtEn= 4.51D-02
 Coeff-Com: -0.133D+00 0.212D+00 0.410D+00 0.512D+00
 Coeff-En:   0.000D+00 0.000D+00 0.299D+00 0.701D+00
 Coeff:     -0.127D+00 0.202D+00 0.405D+00 0.520D+00
 Gap=     0.157 Goal=   None    Shift=    0.000
 RMSDP=1.91D-04 MaxDP=1.78D-02 DE=-2.81D-02 OVMax= 2.47D-02

 Cycle   5  Pass 1  IDiag  1:
 RMSU=  1.25D-04    CP:  9.94D-01  3.00D+00  8.24D-01  6.23D-01
 E= -4931.91994384949     Delta-E=       -0.018387728580 Rises=F Damp=F
 DIIS: error= 1.28D-03 at cycle   5 NSaved=   5.
 NSaved= 5 IEnMin= 5 EnMin= -4931.91994384949     IErMin= 5 ErrMin= 1.28D-03
 ErrMax= 1.28D-03  0.00D+00 EMaxC= 1.00D-01 BMatC= 1.73D-03 BMatP= 2.45D-02
 IDIUse=3 WtCom= 9.87D-01 WtEn= 1.28D-02
 Coeff-Com: -0.175D-01 0.227D-01 0.138D+00 0.268D+00 0.588D+00
 Coeff-En:   0.000D+00 0.000D+00 0.000D+00 0.000D+00 0.100D+01
 Coeff:     -0.173D-01 0.224D-01 0.136D+00 0.265D+00 0.594D+00
 Gap=     0.159 Goal=   None    Shift=    0.000
 RMSDP=5.25D-05 MaxDP=5.50D-03 DE=-1.84D-02 OVMax= 7.63D-03

 Cycle   6  Pass 1  IDiag  1:
 RMSU=  3.83D-05    CP:  9.93D-01  3.00D+00  8.35D-01  6.46D-01  7.33D-01
 E= -4931.92137469026     Delta-E=       -0.001430840770 Rises=F Damp=F
 DIIS: error= 4.36D-04 at cycle   6 NSaved=   6.
 NSaved= 6 IEnMin= 6 EnMin= -4931.92137469026     IErMin= 6 ErrMin= 4.36D-04
 ErrMax= 4.36D-04  0.00D+00 EMaxC= 1.00D-01 BMatC= 1.92D-04 BMatP= 1.73D-03
 IDIUse=3 WtCom= 9.96D-01 WtEn= 4.36D-03
 Coeff-Com:  0.430D-02-0.981D-02 0.326D-01 0.840D-01 0.311D+00 0.578D+00
 Coeff-En:   0.000D+00 0.000D+00 0.000D+00 0.000D+00 0.116D-01 0.988D+00
 Coeff:      0.428D-02-0.977D-02 0.325D-01 0.836D-01 0.310D+00 0.580D+00
 Gap=     0.159 Goal=   None    Shift=    0.000
 RMSDP=1.89D-05 MaxDP=1.88D-03 DE=-1.43D-03 OVMax= 2.59D-03

 Cycle   7  Pass 1  IDiag  1:
[...]
 Alpha  occ. eigenvalues --   -0.52646  -0.52565  -0.52314  -0.51670  -0.51322
 Alpha  occ. eigenvalues --   -0.51271  -0.51118  -0.51052  -0.50953  -0.50622
 Alpha  occ. eigenvalues --   -0.50110  -0.49878  -0.48875  -0.48802  -0.48410
 Alpha  occ. eigenvalues --   -0.48300  -0.47966  -0.47669  -0.47303  -0.46737
 Alpha  occ. eigenvalues --   -0.46637  -0.46203  -0.45949  -0.45754  -0.45271
 Alpha  occ. eigenvalues --   -0.45064  -0.44577  -0.44170  -0.44061  -0.43646
 Alpha  occ. eigenvalues --   -0.43268  -0.42643  -0.42472  -0.42205  -0.41738
 Alpha  occ. eigenvalues --   -0.41572  -0.41345  -0.40920  -0.40557  -0.40329
 Alpha  occ. eigenvalues --   -0.40109  -0.39717  -0.39624  -0.39359  -0.39153
 Alpha  occ. eigenvalues --   -0.38938  -0.38806  -0.38575  -0.38216  -0.38126
 Alpha  occ. eigenvalues --   -0.37805  -0.37528  -0.37296  -0.37049  -0.36971
 Alpha  occ. eigenvalues --   -0.36461  -0.36127  -0.35902  -0.35458  -0.35251
 Alpha  occ. eigenvalues --   -0.34890  -0.29281  -0.28643  -0.26057
 Alpha virt. eigenvalues --   -0.10172  -0.05834  -0.02680  -0.01662  -0.00310
 Alpha virt. eigenvalues --   -0.00220   0.00552   0.01476   0.01571   0.01706
 Alpha virt. eigenvalues --    0.03228   0.04412   0.05557   0.06088   0.06907
 Alpha virt. eigenvalues --    0.07940   0.08821   0.09049   0.09307   0.09755
 Alpha virt. eigenvalues --    0.09870   0.10098   0.10371   0.10473   0.10572
 Alpha virt. eigenvalues --    0.10853   0.11084   0.11253   0.11907   0.12169
 Alpha virt. eigenvalues --    0.12978   0.13346   0.13925   0.14027   0.14189
 Alpha virt. eigenvalues --    0.14770   0.14842   0.15070   0.15856   0.16031
 Alpha virt. eigenvalues --    0.16737   0.16959   0.17531   0.17911   0.18001
 Alpha virt. eigenvalues --    0.18391   0.18658   0.19074   0.19269   0.19318
 Alpha virt. eigenvalues --    0.20209   0.20650   0.20774   0.20978   0.21553
 Alpha virt. eigenvalues --    0.21977   0.22475   0.22826   0.23570   0.24181
 Alpha virt. eigenvalues --    0.24513   0.24783   0.24925   0.25359   0.25698
 Alpha virt. eigenvalues --    0.26121   0.26293   0.26567   0.26712   0.27238
 Alpha virt. eigenvalues --    0.27351   0.28188   0.28228   0.28663   0.29055
 Alpha virt. eigenvalues --    0.29309   0.30150   0.30482   0.30983   0.31721
 Alpha virt. eigenvalues --    0.32237   0.33318   0.33658   0.33882   0.34944
 Alpha virt. eigenvalues --    0.35465   0.36121   0.36525   0.36992   0.38031
 Alpha virt. eigenvalues --    0.38662   0.39957   0.40293   0.40820   0.41178
 Alpha virt. eigenvalues --    0.41631   0.42295   0.42878   0.43135   0.43368
 Alpha virt. eigenvalues --    0.44622   0.44757   0.44950   0.45671   0.46001
 Alpha virt. eigenvalues --    0.46393   0.46523   0.47076   0.47479   0.48027
 Alpha virt. eigenvalues --    0.48136   0.48604   0.48816   0.48946   0.49469
 Alpha virt. eigenvalues --    0.49645   0.49786   0.50039   0.50481   0.50688
 Alpha virt. eigenvalues --    0.51055   0.51190   0.51490   0.51737   0.52593
 Alpha virt. eigenvalues --    0.53356   0.54042   0.54119   0.54367   0.54453
 Alpha virt. eigenvalues --    0.55249   0.55694   0.56014   0.56460   0.57101
 Alpha virt. eigenvalues --    0.57321   0.57858   0.58553   0.59100   0.59362
 Alpha virt. eigenvalues --    0.60237   0.60802   0.61257   0.62132   0.62670
 Alpha virt. eigenvalues --    0.63085   0.63561   0.64008   0.64261   0.64951
 Alpha virt. eigenvalues --    0.65091   0.65506   0.65925   0.66157   0.66468
 Alpha virt. eigenvalues --    0.66829   0.67072   0.67406   0.67591   0.67900
 Alpha virt. eigenvalues --    0.68037   0.68443   0.68514   0.68876   0.69042
 Alpha virt. eigenvalues --    0.69323   0.69753   0.69954   0.70175   0.70259
 Alpha virt. eigenvalues --    0.70790   0.70957   0.71085   0.71538   0.71597
 Alpha virt. eigenvalues --    0.71823   0.72479   0.72671   0.73249   0.73603
 Alpha virt. eigenvalues --    0.73716   0.73893   0.74163   0.74646   0.74847
 Alpha virt. eigenvalues --    0.75529   0.76366   0.76607   0.77063   0.77264
 Alpha virt. eigenvalues --    0.77568   0.77876   0.78232   0.78717   0.78949
 Alpha virt. eigenvalues --    0.79666   0.80582   0.80849   0.81718   0.82400
 Alpha virt. eigenvalues --    0.83048   0.83466   0.84394   0.84926   0.85137
 Alpha virt. eigenvalues --    0.85680   0.86431   0.86901   0.87480   0.87808
 Alpha virt. eigenvalues --    0.88730   0.89095   0.89493   0.90526   0.90819
 Alpha virt. eigenvalues --    0.91350   0.92027   0.92285   0.92913   0.93022
 Alpha virt. eigenvalues --    0.93545   0.93955   0.94351   0.94785   0.95507
 Alpha virt. eigenvalues --    0.95533   0.97035   0.97782   0.98021   0.98438
 Alpha virt. eigenvalues --    0.99127   0.99642   1.00132   1.01135   1.01740
 Alpha virt. eigenvalues --    1.02212   1.02686   1.03108   1.03509   1.03952
 Alpha virt. eigenvalues --    1.04327   1.04517   1.04925   1.05306   1.05756
 Alpha virt. eigenvalues --    1.07137   1.08212   1.08671   1.09273   1.09378
 Alpha virt. eigenvalues --    1.09925   1.10405   1.10613   1.11331   1.11623
 Alpha virt. eigenvalues --    1.12201   1.12432   1.13019   1.13500   1.14258
 Alpha virt. eigenvalues --    1.14350   1.14658   1.15067   1.15862   1.16180
 Alpha virt. eigenvalues --    1.16365   1.16908   1.17449   1.17528   1.17849
 Alpha virt. eigenvalues --    1.18426   1.18782   1.19250   1.19521   1.20002
 Alpha virt. eigenvalues --    1.20632   1.20781   1.21268   1.21755   1.22044
 Alpha virt. eigenvalues --    1.22515   1.22835   1.23314   1.23487   1.24396
 Alpha virt. eigenvalues --    1.24726   1.24912   1.25414   1.25934   1.26400
 Alpha virt. eigenvalues --    1.26876   1.27595   1.27806   1.28513   1.28667
 Alpha virt. eigenvalues --    1.29254   1.29500   1.30108   1.30828   1.31357
 Alpha virt. eigenvalues --    1.31960   1.32084   1.32364   1.33042   1.33372
 Alpha virt. eigenvalues --    1.33596   1.34228   1.34500   1.35142   1.35620
 Alpha virt. eigenvalues --    1.36098   1.36643   1.37187   1.37906   1.38321
 Alpha virt. eigenvalues --    1.38824   1.39471   1.40209   1.40571   1.41077
 Alpha virt. eigenvalues --    1.41122   1.41686   1.42268   1.42858   1.43834
 Alpha virt. eigenvalues --    1.44364   1.44931   1.45284   1.45507   1.46197
 Alpha virt. eigenvalues --    1.47090   1.47303   1.47603   1.48473   1.49061
 Alpha virt. eigenvalues --    1.49310   1.49838   1.50597   1.51836   1.52060
 Alpha virt. eigenvalues --    1.52908   1.53445   1.53460   1.53812   1.54723
 Alpha virt. eigenvalues --    1.54946   1.55395   1.55740   1.56123   1.56849
 Alpha virt. eigenvalues --    1.57522   1.58107   1.58993   1.59650   1.59966
 Alpha virt. eigenvalues --    1.60238   1.61512   1.61667   1.61845   1.62943
 Alpha virt. eigenvalues --    1.63276   1.64041   1.64557   1.65250   1.65693
 Alpha virt. eigenvalues --    1.65921   1.66167   1.66723   1.67379   1.68167
 Alpha virt. eigenvalues --    1.68686   1.69570   1.69939   1.70022   1.70512
 Alpha virt. eigenvalues --    1.70640   1.71667   1.72010   1.72375   1.73122
 Alpha virt. eigenvalues --    1.73462   1.73699   1.74323   1.74580   1.74646
 Alpha virt. eigenvalues --    1.75696   1.75881   1.76098   1.76818   1.77020
 Alpha virt. eigenvalues --    1.77458   1.77985   1.78587   1.79126   1.79522
 Alpha virt. eigenvalues --    1.79945   1.80172   1.80862   1.81518   1.82538
 Alpha virt. eigenvalues --    1.82986   1.83356   1.84036   1.84179   1.84956
 Alpha virt. eigenvalues --    1.85482   1.85918   1.86377   1.86817   1.86859
 Alpha virt. eigenvalues --    1.87158   1.87675   1.87736   1.88756   1.89170
 Alpha virt. eigenvalues --    1.90261   1.90937   1.91429   1.91568   1.92043
 Alpha virt. eigenvalues --    1.92404   1.92621   1.93049   1.93248   1.93450
 Alpha virt. eigenvalues --    1.94072   1.94792   1.95525   1.95963   1.96698
 Alpha virt. eigenvalues --    1.97157   1.97345   1.97650   1.98141   1.98857
 Alpha virt. eigenvalues --    1.99574   1.99960   2.00107   2.00632   2.01347
 Alpha virt. eigenvalues --    2.01445   2.02394   2.03072   2.03469   2.03783
 Alpha virt. eigenvalues --    2.04608   2.05398   2.05620   2.06750   2.07891
 Alpha virt. eigenvalues --    2.08283   2.08568   2.09408   2.09744   2.11302
 Alpha virt. eigenvalues --    2.12040   2.13234   2.13799   2.14305   2.15407
 Alpha virt. eigenvalues --    2.15748   2.16101   2.17133   2.17911   2.18396
 Alpha virt. eigenvalues --    2.18986   2.20768   2.21242   2.21946   2.22098
 Alpha virt. eigenvalues --    2.22598   2.23290   2.23504   2.23862   2.24702
 Alpha virt. eigenvalues --    2.25023   2.25098   2.25685   2.26803   2.28193
 Alpha virt. eigenvalues --    2.28839   2.30488   2.30812   2.31948   2.32012
 Alpha virt. eigenvalues --    2.33985   2.34474   2.34709   2.35803   2.36653
 Alpha virt. eigenvalues --    2.38470   2.39439   2.39650   2.41578   2.43600
 Alpha virt. eigenvalues --    2.44420   2.46497   2.47486   2.49044   2.52200
 Alpha virt. eigenvalues --    2.54879   2.55625   2.56095   2.57161   2.57540
 Alpha virt. eigenvalues --    2.58248   2.58921   2.59453   2.60244   2.60438
 Alpha virt. eigenvalues --    2.60900   2.61470   2.61773   2.62067   2.62528
 Alpha virt. eigenvalues --    2.62969   2.63021   2.63385   2.64251   2.64676
 Alpha virt. eigenvalues --    2.65535   2.65725   2.65934   2.66927   2.67251
 Alpha virt. eigenvalues --    2.67835   2.68950   2.69590   2.69962   2.70246
 Alpha virt. eigenvalues --    2.71450   2.72088   2.72409   2.72791   2.73450
 Alpha virt. eigenvalues --    2.74096   2.74316   2.75806   2.77466   2.78106
 Alpha virt. eigenvalues --    2.78939   2.79083   2.79246   2.79538   2.79899
 Alpha virt. eigenvalues --    2.80366   2.80769   2.81160   2.81558   2.82537
 Alpha virt. eigenvalues --    2.82869   2.83145   2.83343   2.84011   2.84880
 Alpha virt. eigenvalues --    2.85690   2.86019   2.87081   2.87277   2.88547
 Alpha virt. eigenvalues --    2.89703   2.90677   2.90868   2.92522   2.92782
 Alpha virt. eigenvalues --    2.93460   2.94200   2.94857   2.95579   2.95845
 Alpha virt. eigenvalues --    2.96285   2.96464   2.97342   2.97664   2.98435
 Alpha virt. eigenvalues --    2.98613   2.98804   2.98922   2.99168   2.99968
 Alpha virt. eigenvalues --    3.00259   3.00521   3.01228   3.02202   3.02862
 Alpha virt. eigenvalues --    3.03137   3.03245   3.03280   3.03290   3.03352
 Alpha virt. eigenvalues --    3.03460   3.03556   3.03745   3.03833   3.03908
 Alpha virt. eigenvalues --    3.04077   3.04216   3.04602   3.04975   3.05423
 Alpha virt. eigenvalues --    3.05761   3.05983   3.06405   3.07328   3.07862
 Alpha virt. eigenvalues --    3.08944   3.11668   3.13005   3.13572   3.14996
 Alpha virt. eigenvalues --    3.15576   3.16051   3.16118   3.16425   3.16786
 Alpha virt. eigenvalues --    3.17013   3.20787   3.21104   3.22149   3.22684
 Alpha virt. eigenvalues --    3.23937   3.32651   3.34545   3.35351   3.35975
 Alpha virt. eigenvalues --    3.37731   3.37933   3.38489   3.38687   3.38801
 Alpha virt. eigenvalues --    3.39192   3.39902   3.40586   3.41246   3.45739
 Alpha virt. eigenvalues --    3.51153   3.51735   3.52448   3.52799   3.53239
 Alpha virt. eigenvalues --    3.53492   3.53862   3.54288   3.54689   3.56324
 Alpha virt. eigenvalues --    3.61324   3.67647   3.67930   3.68464   3.70052
 Alpha virt. eigenvalues --    3.80939   3.81441   3.82808   3.83308   3.83596
 Alpha virt. eigenvalues --    3.84205
          Condensed to atoms (all electrons):
 Mulliken charges:
               1
     1  C   -0.184213
     2  C    0.210005
     3  C    0.247034
     4  O   -0.322736
     5  O   -0.294640
     6  O   -0.271499
     7  O   -0.279636
     8  C    0.178751
     9  C    0.162230
    10  H    0.045602
    11  H    0.041673
    12  H    0.047015
    13  H    0.058440
    14  H    0.063151
    15  H    0.053565
    16  O   -0.438077
    17  O   -0.437142
    18  O   -0.424967
    19  S    0.886172
    20  S    0.868176
    21  S    0.861828
    22  O   -0.443285
    23  O   -0.406509
    24  O   -0.425591
    25  O   -0.397848
    26  O   -0.440827
    27  O   -0.420276
    28  C    0.436155
    29  C    0.440494
    30  C    0.422613
    31  F   -0.122036
    32  F   -0.115668
    33  F   -0.128732
    34  F   -0.104275
    35  F   -0.123377
    36  F   -0.123789
    37  F   -0.122366
    38  F   -0.116826
    39  F   -0.122013
    40  C    0.062728
    41  C   -0.071575
    42  C   -0.178363
    43  C   -0.203705
    44  C    0.082692
    45  C    0.069024
    46  C    0.077082
    47  H    0.089897
    48  H    0.092642
    49  H    0.067822
    50  N    0.151531
    51  N    0.147464
    52  N   -0.097430
    53  N    0.013975
    54  C    0.210772
    55  H    0.100328
    56  C    0.199086
    57  H    0.043380
    58  H    0.023095
    59  Sc   0.258686
    60  H    0.083652
    61  C    0.069354
    62  C   -0.054769
    63  C   -0.028397
    64  C    0.006709
    65  H    0.012149
    66  C    0.002508
    67  H   -0.015759
    68  C    0.004225
    69  H    0.009453
    70  H    0.005318
    71  H    0.009852
 Sum of Mulliken charges =  -0.00000
 Mulliken charges with hydrogens summed into heavy atoms:
               1
     1  C   -0.184213
     2  C    0.210005
     3  C    0.247034
     4  O   -0.322736
     5  O   -0.294640
     6  O   -0.271499
     7  O   -0.279636
     8  C    0.313040
     9  C    0.337386
    16  O   -0.438077
    17  O   -0.437142
    18  O   -0.424967
    19  S    0.886172
    20  S    0.868176
    21  S    0.861828
    22  O   -0.443285
    23  O   -0.406509
    24  O   -0.425591
    25  O   -0.397848
    26  O   -0.440827
    27  O   -0.420276
    28  C    0.436155
    29  C    0.440494
    30  C    0.422613
    31  F   -0.122036
    32  F   -0.115668
    33  F   -0.128732
    34  F   -0.104275
    35  F   -0.123377
    36  F   -0.123789
    37  F   -0.122366
    38  F   -0.116826
    39  F   -0.122013
    40  C    0.146381
    41  C   -0.071575
    42  C   -0.178363
    43  C   -0.203705
    44  C    0.172589
    45  C    0.161666
    46  C    0.144904
    50  N    0.151531
    51  N    0.147464
    52  N   -0.097430
    53  N    0.013975
    54  C    0.311100
    56  C    0.265561
    59  Sc   0.258686
    61  C    0.069354
    62  C   -0.042620
    63  C   -0.044157
    64  C    0.016161
    66  C    0.007826
    68  C    0.014077
 Electronic spatial extent (au):  <R**2>=          31557.2757
 Charge=              0.0000 electrons
 Dipole moment (field-independent basis, Debye):
    X=            -15.5580    Y=             -9.1479    Z=             -1.2169  Tot=             18.0891
 Quadrupole moment (field-independent basis, Debye-Ang):
   XX=           -361.2435   YY=           -323.2285   ZZ=           -322.7571
   XY=            -14.1642   XZ=              2.6088   YZ=             -0.4188
 Traceless Quadrupole moment (field-independent basis, Debye-Ang):
   XX=            -25.5005   YY=             12.5145   ZZ=             12.9859
   XY=            -14.1642   XZ=              2.6088   YZ=             -0.4188
 Octapole moment (field-independent basis, Debye-Ang**2):
  XXX=            388.6165  YYY=            -92.0005  ZZZ=            -53.6521  XYY=            -12.4107
  XXY=            137.7700  XXZ=           -115.3335  XZZ=              3.5697  YZZ=             27.1346
  YYZ=            -55.7144  XYZ=            -36.6886
 Hexadecapole moment (field-independent basis, Debye-Ang**3):
 XXXX=         -27305.4833 YYYY=          -8721.8139 ZZZZ=          -5562.4551 XXXY=          -1231.9079
 XXXZ=           -149.1296 YYYX=           -476.5473 YYYZ=             45.5323 ZZZX=            281.6318
 ZZZY=             91.8026 XXYY=          -5697.8906 XXZZ=          -5206.6761 YYZZ=          -2404.1156
 XXYZ=            117.8050 YYXZ=            100.0844 ZZXY=           -155.9539
 N-N= 1.073906698469D+04 E-N=-3.310637850883D+04  KE= 4.900252235275D+03
 No NMR shielding tensors so no spin-rotation constants.
 Leave Link  601 at Tue Feb 18 23:17:31 2025, MaxMem= 82678120448 cpu:             179.4 elap:              18.2
 (Enter /sysapps/ubuntu-applications/gaussian-new/avx/g16/l9999.exe)
 1\1\GINC-ACIDSCN006\FOpt\RMN15\Gen\C23H18F9N4O13S3Sc1\SELHAJJ1\18-Feb-
 2025\0\\#P MN15/gen scf=(maxcyc=500) opt scrf=(smd,solvent=DiChloroEth
 ane)\\Opt\\0,1\C,-1.8138887129,0.1587990695,1.1862097435\C,-1.48049351
 61,0.2012611261,-0.1888494079\C,-0.7628851638,-0.1194957373,2.09616628
 27\O,0.4437147741,-0.3553651467,1.7875037704\O,-0.3246755446,0.1896303
 181,-0.6972796159\O,-2.5151350091,0.206375621,-1.0191802198\O,-1.09111
 65393,-0.2074529161,3.3796153444\C,-2.2500967649,0.2360651607,-2.41895
 47145\C,-0.0476877512,-0.4717359932,4.3156081693\H,-3.219240187,0.1253
 491704,-2.9187472178\H,-1.5735784635,-0.582204135,-2.7055404142\H,-1.7
 9042212,1.1917817448,-2.7039187949\H,-0.5147383665,-0.4575749519,5.306
 1243841\H,0.7307183587,0.3011342433,4.2533385813\H,0.4057079633,-1.454
 4516335,4.1269181233\O,3.3543319363,-0.906953356,0.9106554263\O,2.3047
 644064,-0.4218522914,-1.7890663137\O,0.5360095207,2.2633138336,0.96235
 14019\S,1.1356813948,3.0716914161,-0.1282064222\S,4.0149224264,0.21081
 63381,1.6539608286\S,1.9650081505,-1.8762752881,-1.6967350308\O,1.9440
 019266,2.1088174412,-0.9446282748\O,1.7488735163,4.3337620591,0.201829
 8432\O,3.0313015262,1.3295859073,1.584848037\O,4.6313468387,-0.0879763
 099,2.9196410805\O,1.3216261644,-2.0606827094,-0.3728628445\O,1.308859
 7438,-2.472961615,-2.840060661\C,3.6250435863,-2.7264716512,-1.5677007
 313\C,5.3556476584,0.7340976361,0.5087284578\C,-0.2996733516,3.4934357
 787,-1.2503054575\F,3.6436445574,-3.4939777447,-0.49583227\F,4.5937118
 714,-1.835111087,-1.4950810587\F,3.8026105121,-3.4737082992,-2.6428136
 713\F,4.8205636284,1.0115519359,-0.6670952172\F,6.2310598917,-0.244974
 164,0.3803372976\F,5.9548921391,1.8071615964,0.9889071484\F,-1.4200951
 431,2.9846733177,-0.7607425404\F,-0.0908390183,2.9965237043,-2.4560392
 894\F,-0.4209206866,4.8038986909,-1.3310012592\C,-4.5384254692,-0.0445
 444323,1.1740454341\C,-4.6261358265,-1.6116264628,1.2053121905\C,-5.91
 64169259,-2.1084114584,0.6835216287\C,-4.5703570481,-2.0122009505,2.62
 91602839\C,-1.2913253037,-3.0880634018,0.3478088311\C,-2.7713670771,-3
 .0255878578,-1.533069072\C,-1.4875722511,-3.2895791732,-1.0021129935\H
 ,-0.3398248057,-3.2822324695,0.8407509827\H,-3.0076927121,-3.205522497
 5,-2.5838083708\H,-0.6848232453,-3.6432309362,-1.6515389192\N,-6.95287
 78228,-2.4922468005,0.3443638454\N,-4.5465623143,-2.2851311814,3.75273
 08368\N,-3.5160313858,-2.3063159571,0.4725707118\N,-3.7519921397,-2.54
 22934503,-0.802503845\C,-2.355670059,-2.5630741206,1.0869694023\H,-2.2
 98199231,-2.3828510153,2.1618551371\C,-3.189680296,0.5174571563,1.7191
 978881\H,-3.3185785156,1.6104690599,1.6602140639\H,-3.1726919175,0.291
 1239845,2.7940903101\Sc,1.5571641548,0.2590744295,0.1852713952\H,-5.23
 60450154,0.206189388,1.9915210952\C,-5.1477194054,0.6848161369,-0.0209
 391175\C,-5.4587783433,2.0368953689,0.1994479761\C,-5.4624809248,0.131
 4446592,-1.2669068191\C,-6.043281291,2.8175853336,-0.7965802597\H,-5.2
 470970792,2.4856162045,1.1744936418\C,-6.0603005685,0.9090400744,-2.26
 38385754\H,-5.2301415824,-0.90971722,-1.4895988244\C,-6.3481546487,2.2
 547712575,-2.0382911221\H,-6.2707912717,3.8669551956,-0.5961280725\H,-
 6.2949668132,0.45127143,-3.2277158082\H,-6.8111060181,2.859843627,-2.8
 209053488\\Version=ES64L-G16RevA.03\State=1-A\HF=-4931.921709\RMSD=8.5
 61e-09\RMSF=6.532e-06\Dipole=-6.0767899,-3.6944537,-0.2692141\Quadrupo
 le=-18.7111845,9.014777,9.6964074,-10.7310908,2.5381197,-0.2693972\PG=
 C01 [X(C23H18F9N4O13S3Sc1)]\\@


 TELEVISION IS CALLED A MEDIUM BECAUSE IT ISN'T
 RARE, AND IT ISN'T WELL DONE.
 Job cpu time:       9 days 11 hours  3 minutes 50.7 seconds.
 Elapsed time:       0 days 23 hours  1 minutes 21.2 seconds.
 File lengths (MBytes):  RWF=   1232 Int=      0 D2E=      0 Chk=     64 Scr=      1
 Normal termination of Gaussian 16 at Tue Feb 18 23:17:32 2025.
