 Entering Gaussian System, Link 0=/sysapps/ubuntu-applications/gaussian-new/avx/g16//g16
 Input=i1-open.in
 Output=i1-open.log
 Initial command:
 /sysapps/ubuntu-applications/gaussian-new/avx/g16/l1.exe "/data/temp-scratch/selhajj1/7603561/Gau-3230739.inp" -scrdir="/data/temp-scratch/selhajj1/7603561/"
 Entering Link 1 = /sysapps/ubuntu-applications/gaussian-new/avx/g16/l1.exe PID=   3230741.
  
 Copyright (c) 1988,1990,1992,1993,1995,1998,2003,2009,2016,
            Gaussian, Inc.  All Rights Reserved.
  
 This is part of the Gaussian(R) 16 program.  It is based on
 the Gaussian(R) 09 system (copyright 2009, Gaussian, Inc.),
 the Gaussian(R) 03 system (copyright 2003, Gaussian, Inc.),
 the Gaussian(R) 98 system (copyright 1998, Gaussian, Inc.),
 the Gaussian(R) 94 system (copyright 1995, Gaussian, Inc.),
 the Gaussian 92(TM) system (copyright 1992, Gaussian, Inc.),
 the Gaussian 90(TM) system (copyright 1990, Gaussian, Inc.),
 the Gaussian 88(TM) system (copyright 1988, Gaussian, Inc.),
 the Gaussian 86(TM) system (copyright 1986, Carnegie Mellon
 University), and the Gaussian 82(TM) system (copyright 1983,
 Carnegie Mellon University). Gaussian is a federally registered
 trademark of Gaussian, Inc.
  
 This software contains proprietary and confidential information,
 including trade secrets, belonging to Gaussian, Inc.
  
 This software is provided under written license and may be
 used, copied, transmitted, or stored only in accord with that
 written license.
  
 The following legend is applicable only to US Government
 contracts under FAR:
  
                    RESTRICTED RIGHTS LEGEND
  
 Use, reproduction and disclosure by the US Government is
 subject to restrictions as set forth in subparagraphs (a)
 and (c) of the Commercial Computer Software - Restricted
 Rights clause in FAR 52.227-19.
  
 Gaussian, Inc.
 340 Quinnipiac St., Bldg. 40, Wallingford CT 06492
  
  
 ---------------------------------------------------------------
 Warning -- This program may not be used in any manner that
 competes with the business of Gaussian, Inc. or will provide
 assistance to any competitor of Gaussian, Inc.  The licensee
 of this program is prohibited from giving any competitor of
 Gaussian, Inc. access to this program.  By using this program,
 the user acknowledges that Gaussian, Inc. is engaged in the
 business of creating and licensing software in the field of
 computational chemistry and represents and warrants to the
 licensee that it is not a competitor of Gaussian, Inc. and that
 it will not use this program in any manner prohibited above.
 ---------------------------------------------------------------
  

 Cite this work as:
 Gaussian 16, Revision A.03,
 M. J. Frisch, G. W. Trucks, H. B. Schlegel, G. E. Scuseria, 
 M. A. Robb, J. R. Cheeseman, G. Scalmani, V. Barone, 
 G. A. Petersson, H. Nakatsuji, X. Li, M. Caricato, A. V. Marenich, 
 J. Bloino, B. G. Janesko, R. Gomperts, B. Mennucci, H. P. Hratchian, 
 J. V. Ortiz, A. F. Izmaylov, J. L. Sonnenberg, D. Williams-Young, 
 F. Ding, F. Lipparini, F. Egidi, J. Goings, B. Peng, A. Petrone, 
 T. Henderson, D. Ranasinghe, V. G. Zakrzewski, J. Gao, N. Rega, 
 G. Zheng, W. Liang, M. Hada, M. Ehara, K. Toyota, R. Fukuda, 
 J. Hasegawa, M. Ishida, T. Nakajima, Y. Honda, O. Kitao, H. Nakai, 
 T. Vreven, K. Throssell, J. A. Montgomery, Jr., J. E. Peralta, 
 F. Ogliaro, M. J. Bearpark, J. J. Heyd, E. N. Brothers, K. N. Kudin, 
 V. N. Staroverov, T. A. Keith, R. Kobayashi, J. Normand, 
 K. Raghavachari, A. P. Rendell, J. C. Burant, S. S. Iyengar, 
 J. Tomasi, M. Cossi, J. M. Millam, M. Klene, C. Adamo, R. Cammi, 
 J. W. Ochterski, R. L. Martin, K. Morokuma, O. Farkas, 
 J. B. Foresman, and D. J. Fox, Gaussian, Inc., Wallingford CT, 2016.
 
 ******************************************
 Gaussian 16:  ES64L-G16RevA.03 25-Dec-2016
                21-Feb-2025 
 ******************************************
 %chk=i1-open.chk
 %mem=616Gb
 %nprocshared=24
 Will use up to   24 processors via shared memory.
 ----------------------------------------------------------------------
 #P UMN15/genecp scf=(maxcyc=500) freq scrf=(smd,solvent=DiChloroEthane
 )
 ----------------------------------------------------------------------
 1/10=4,30=1,38=1/1,3;
 2/12=2,17=6,18=5,40=1/2;
 3/5=7,11=2,16=1,17=8,25=1,30=1,70=32201,71=2,72=10,74=-73,116=2,140=1/1,2,3;
 4//1;
 5/5=2,7=500,38=5,53=10,98=1/2;
 8/6=4,10=90,11=11/1;
 11/6=1,8=1,9=11,15=111,16=1/1,2,10;
 10/6=1/2;
 6/7=2,8=2,9=2,10=2,28=1/1;
 7/8=1,10=1,25=1/1,2,3,16;
 1/10=4,30=1/3;
 99//99;
 Leave Link    1 at Fri Feb 21 18:21:36 2025, MaxMem= 82678120448 cpu:             100.2 elap:               4.4
 (Enter /sysapps/ubuntu-applications/gaussian-new/avx/g16/l101.exe)
 ---
 Opt
 ---
 Symbolic Z-matrix:
 Charge =  0 Multiplicity = 2
 C                    -5.52689   0.00717  -0.5537 
 C                    -6.16026   0.61316  -1.67473 
 C                    -7.52325   0.83014  -1.63474 
 C                    -8.25704   0.44782  -0.496 
 C                    -7.64338  -0.15258   0.61234 
 C                    -6.27704  -0.3753    0.59153 
 C                    -4.14897  -0.22991  -0.51891 
 C                    -2.08361  -0.1864   -1.59842 
 O                    -3.39742   0.1201   -1.52707 
 C                    -1.61123  -1.52738  -1.201 
 C                    -1.18355   0.86895  -2.09008 
 H                    -5.56516   0.90237  -2.54314 
 H                    -8.0328    1.29688  -2.47867 
 H                    -9.33479   0.62593  -0.47623 
 H                    -8.23766  -0.43824   1.48104 
 H                    -5.76231  -0.83934   1.43615 
 H                    -3.65425  -0.6759    0.358 
 O                     0.02993   0.73637  -2.08791 
 O                    -0.44815  -1.7657   -0.92909 
 Yb                    1.28469  -0.05942  -0.06833 
 O                    -2.58816  -2.40331  -1.16633 
 O                    -1.82138   1.93545  -2.49756 
 C                    -2.25894  -3.71588  -0.68625 
 C                    -1.01228   3.03268  -2.94744 
 H                    -3.1916   -4.28743  -0.69545 
 H                    -1.85799  -3.63478   0.33265 
 H                    -1.51563  -4.17825  -1.3488 
 H                    -1.70208   3.85772  -3.14894 
 H                    -0.47543   2.74823  -3.86268 
 H                    -0.28872   3.30783  -2.16931 
 O                     0.94692   2.51456   0.0991 
 O                     0.17793  -1.13072   2.03568 
 O                     2.56791  -1.49507  -1.65447 
 S                     3.62739  -1.89608  -0.69792 
 S                     2.19348   2.84327  -0.63323 
 S                    -1.17567  -0.57794   1.85375 
 O                     3.45939  -1.14382   0.57139 
 O                     4.97231  -2.03599  -1.21147 
 O                     2.83502   1.59992  -1.12287 
 O                     2.13553   3.96538  -1.55029 
 O                    -1.18984   0.45924   0.78887 
 O                    -2.27517  -1.53798   1.76793 
 C                    -1.49324   0.37406   3.38986 
 C                     3.32512   3.36627   0.7155 
 C                     3.09817  -3.58803  -0.21843 
 F                    -2.67235   0.96799   3.29987 
 F                    -0.55112   1.28788   3.5449 
 F                    -1.49177  -0.44113   4.42924 
 F                     3.42105   2.38566   1.60847 
 F                     2.85269   4.44716   1.31733 
 F                     4.52954   3.62898   0.23537 
 F                     1.87306  -3.53065   0.29454 
 F                     3.92001  -4.09206   0.68868 
 F                     3.0819   -4.38382  -1.27699 
 
 ITRead=  0  0  0  0  0  0  0  0  0  0  0  0  0  0  0  0  0  0  0  0
 ITRead=  0  0  0  0  0  0  0  0  0  0  0  0  0  0  0  0  0  0  0  0
 ITRead=  0  0  0  0  0  0  0  0  0  0  0  0  0  0
 MicOpt= -1 -1 -1 -1 -1 -1 -1 -1 -1 -1 -1 -1 -1 -1 -1 -1 -1 -1 -1 -1
 MicOpt= -1 -1 -1 -1 -1 -1 -1 -1 -1 -1 -1 -1 -1 -1 -1 -1 -1 -1 -1 -1
 MicOpt= -1 -1 -1 -1 -1 -1 -1 -1 -1 -1 -1 -1 -1 -1
 NAtoms=     54 NQM=       54 NQMF=       0 NMMI=      0 NMMIF=      0
                NMic=       0 NMicF=      0.
                    Isotopes and Nuclear Properties:
 (Nuclear quadrupole moments (NQMom) in fm**2, nuclear magnetic moments (NMagM)
  in nuclear magnetons)

  Atom         1           2           3           4           5           6           7           8           9          10
 IAtWgt=          12          12          12          12          12          12          12          12          16          12
 AtmWgt=  12.0000000  12.0000000  12.0000000  12.0000000  12.0000000  12.0000000  12.0000000  12.0000000  15.9949146  12.0000000
 NucSpn=           0           0           0           0           0           0           0           0           0           0
 AtZEff=  -0.0000000  -0.0000000  -0.0000000  -0.0000000  -0.0000000  -0.0000000  -0.0000000  -0.0000000  -0.0000000  -0.0000000
 NQMom=    0.0000000   0.0000000   0.0000000   0.0000000   0.0000000   0.0000000   0.0000000   0.0000000   0.0000000   0.0000000
 NMagM=    0.0000000   0.0000000   0.0000000   0.0000000   0.0000000   0.0000000   0.0000000   0.0000000   0.0000000   0.0000000
 AtZNuc=   6.0000000   6.0000000   6.0000000   6.0000000   6.0000000   6.0000000   6.0000000   6.0000000   8.0000000   6.0000000

  Atom        11          12          13          14          15          16          17          18          19          20
 IAtWgt=          12           1           1           1           1           1           1          16          16         174
 AtmWgt=  12.0000000   1.0078250   1.0078250   1.0078250   1.0078250   1.0078250   1.0078250  15.9949146  15.9949146 173.9390000
 NucSpn=           0           1           1           1           1           1           1           0           0           0
 AtZEff=  -0.0000000  -0.0000000  -0.0000000  -0.0000000  -0.0000000  -0.0000000  -0.0000000  -0.0000000  -0.0000000  -0.0000000
 NQMom=    0.0000000   0.0000000   0.0000000   0.0000000   0.0000000   0.0000000   0.0000000   0.0000000   0.0000000   0.0000000
 NMagM=    0.0000000   2.7928460   2.7928460   2.7928460   2.7928460   2.7928460   2.7928460   0.0000000   0.0000000   0.0000000
 AtZNuc=   6.0000000   1.0000000   1.0000000   1.0000000   1.0000000   1.0000000   1.0000000   8.0000000   8.0000000  70.0000000

  Atom        21          22          23          24          25          26          27          28          29          30
 IAtWgt=          16          16          12          12           1           1           1           1           1           1
 AtmWgt=  15.9949146  15.9949146  12.0000000  12.0000000   1.0078250   1.0078250   1.0078250   1.0078250   1.0078250   1.0078250
 NucSpn=           0           0           0           0           1           1           1           1           1           1
 AtZEff=  -0.0000000  -0.0000000  -0.0000000  -0.0000000  -0.0000000  -0.0000000  -0.0000000  -0.0000000  -0.0000000  -0.0000000
 NQMom=    0.0000000   0.0000000   0.0000000   0.0000000   0.0000000   0.0000000   0.0000000   0.0000000   0.0000000   0.0000000
 NMagM=    0.0000000   0.0000000   0.0000000   0.0000000   2.7928460   2.7928460   2.7928460   2.7928460   2.7928460   2.7928460
 AtZNuc=   8.0000000   8.0000000   6.0000000   6.0000000   1.0000000   1.0000000   1.0000000   1.0000000   1.0000000   1.0000000

  Atom        31          32          33          34          35          36          37          38          39          40
 IAtWgt=          16          16          16          32          32          32          16          16          16          16
 AtmWgt=  15.9949146  15.9949146  15.9949146  31.9720718  31.9720718  31.9720718  15.9949146  15.9949146  15.9949146  15.9949146
 NucSpn=           0           0           0           0           0           0           0           0           0           0
 AtZEff=  -0.0000000  -0.0000000  -0.0000000  -0.0000000  -0.0000000  -0.0000000  -0.0000000  -0.0000000  -0.0000000  -0.0000000
 NQMom=    0.0000000   0.0000000   0.0000000   0.0000000   0.0000000   0.0000000   0.0000000   0.0000000   0.0000000   0.0000000
 NMagM=    0.0000000   0.0000000   0.0000000   0.0000000   0.0000000   0.0000000   0.0000000   0.0000000   0.0000000   0.0000000
 AtZNuc=   8.0000000   8.0000000   8.0000000  16.0000000  16.0000000  16.0000000   8.0000000   8.0000000   8.0000000   8.0000000

  Atom        41          42          43          44          45          46          47          48          49          50
 IAtWgt=          16          16          12          12          12          19          19          19          19          19
 AtmWgt=  15.9949146  15.9949146  12.0000000  12.0000000  12.0000000  18.9984032  18.9984032  18.9984032  18.9984032  18.9984032
 NucSpn=           0           0           0           0           0           1           1           1           1           1
 AtZEff=  -0.0000000  -0.0000000  -0.0000000  -0.0000000  -0.0000000  -0.0000000  -0.0000000  -0.0000000  -0.0000000  -0.0000000
 NQMom=    0.0000000   0.0000000   0.0000000   0.0000000   0.0000000   0.0000000   0.0000000   0.0000000   0.0000000   0.0000000
 NMagM=    0.0000000   0.0000000   0.0000000   0.0000000   0.0000000   2.6288670   2.6288670   2.6288670   2.6288670   2.6288670
 AtZNuc=   8.0000000   8.0000000   6.0000000   6.0000000   6.0000000   9.0000000   9.0000000   9.0000000   9.0000000   9.0000000

  Atom        51          52          53          54
 IAtWgt=          19          19          19          19
 AtmWgt=  18.9984032  18.9984032  18.9984032  18.9984032
 NucSpn=           1           1           1           1
 AtZEff=  -0.0000000  -0.0000000  -0.0000000  -0.0000000
 NQMom=    0.0000000   0.0000000   0.0000000   0.0000000
 NMagM=    2.6288670   2.6288670   2.6288670   2.6288670
 AtZNuc=   9.0000000   9.0000000   9.0000000   9.0000000
 Leave Link  101 at Fri Feb 21 18:21:36 2025, MaxMem= 82678120448 cpu:               6.7 elap:               0.4
 (Enter /sysapps/ubuntu-applications/gaussian-new/avx/g16/l103.exe)

 GradGradGradGradGradGradGradGradGradGradGradGradGradGradGradGradGradGrad
 Berny optimization.
 Initialization pass.
 Trust Radius=3.00D-01 FncErr=1.00D-07 GrdErr=1.00D-07 EigMax=2.50D+02 EigMin=1.00D-04
 Number of steps in this run=      2 maximum allowed number of steps=      2.
 GradGradGradGradGradGradGradGradGradGradGradGradGradGradGradGradGradGrad

 Leave Link  103 at Fri Feb 21 18:21:36 2025, MaxMem= 82678120448 cpu:               1.5 elap:               0.1
 (Enter /sysapps/ubuntu-applications/gaussian-new/avx/g16/l202.exe)
 Stoichiometry    C15H12F9O14S3Yb(2)
 Framework group  C1[X(C15H12F9O14S3Yb)]
 Deg. of freedom   156
 Full point group                 C1      NOp   1
 Largest Abelian subgroup         C1      NOp   1
 Largest concise Abelian subgroup C1      NOp   1
                         Standard orientation:                         
 ---------------------------------------------------------------------
 Center     Atomic      Atomic             Coordinates (Angstroms)
 Number     Number       Type             X           Y           Z
 ---------------------------------------------------------------------
      1          6           0        5.526893   -0.007165   -0.553700
      2          6           0        6.160265   -0.613161   -1.674732
      3          6           0        7.523245   -0.830140   -1.634738
      4          6           0        8.257035   -0.447820   -0.495999
      5          6           0        7.643379    0.152575    0.612338
      6          6           0        6.277041    0.375298    0.591532
      7          6           0        4.148970    0.229914   -0.518909
      8          6           0        2.083608    0.186399   -1.598422
      9          8           0        3.397417   -0.120103   -1.527072
     10          6           0        1.611234    1.527375   -1.200995
     11          6           0        1.183551   -0.868950   -2.090083
     12          1           0        5.565159   -0.902370   -2.543138
     13          1           0        8.032800   -1.296882   -2.478665
     14          1           0        9.334794   -0.625931   -0.476232
     15          1           0        8.237664    0.438242    1.481042
     16          1           0        5.762311    0.839343    1.436148
     17          1           0        3.654254    0.675896    0.358003
     18          8           0       -0.029925   -0.736366   -2.087913
     19          8           0        0.448146    1.765697   -0.929089
     20         70           0       -1.284685    0.059419   -0.068332
     21          8           0        2.588163    2.403305   -1.166332
     22          8           0        1.821381   -1.935447   -2.497559
     23          6           0        2.258941    3.715876   -0.686245
     24          6           0        1.012275   -3.032679   -2.947437
     25          1           0        3.191603    4.287433   -0.695453
     26          1           0        1.857989    3.634776    0.332654
     27          1           0        1.515629    4.178246   -1.348804
     28          1           0        1.702075   -3.857721   -3.148942
     29          1           0        0.475428   -2.748226   -3.862681
     30          1           0        0.288722   -3.307832   -2.169307
     31          8           0       -0.946923   -2.514556    0.099096
     32          8           0       -0.177928    1.130717    2.035685
     33          8           0       -2.567910    1.495069   -1.654471
     34         16           0       -3.627387    1.896079   -0.697919
     35         16           0       -2.193482   -2.843265   -0.633230
     36         16           0        1.175668    0.577936    1.853753
     37          8           0       -3.459386    1.143816    0.571389
     38          8           0       -4.972307    2.035987   -1.211471
     39          8           0       -2.835016   -1.599921   -1.122867
     40          8           0       -2.135535   -3.965382   -1.550293
     41          8           0        1.189842   -0.459243    0.788867
     42          8           0        2.275166    1.537980    1.767928
     43          6           0        1.493242   -0.374058    3.389855
     44          6           0       -3.325120   -3.366269    0.715497
     45          6           0       -3.098168    3.588030   -0.218433
     46          9           0        2.672349   -0.967989    3.299872
     47          9           0        0.551120   -1.287884    3.544899
     48          9           0        1.491770    0.441126    4.429239
     49          9           0       -3.421047   -2.385658    1.608466
     50          9           0       -2.852685   -4.447161    1.317327
     51          9           0       -4.529535   -3.628982    0.235367
     52          9           0       -1.873060    3.530654    0.294535
     53          9           0       -3.920013    4.092061    0.688684
     54          9           0       -3.081905    4.383825   -1.276992
 ---------------------------------------------------------------------
 Rotational constants (GHZ):           0.0892623           0.0491656           0.0428130
 Leave Link  202 at Fri Feb 21 18:21:36 2025, MaxMem= 82678120448 cpu:               1.3 elap:               0.1
 (Enter /sysapps/ubuntu-applications/gaussian-new/avx/g16/l301.exe)
 General basis read from cards:  (5D, 7F)
 Centers:      12     13     14     15     16     17     25     26     27     28
 Centers:      29     30
 S 3 1.00
     Exponent=  1.3010701000D+01 Coefficients=  1.9682158000D-02
     Exponent=  1.9622572000D+00 Coefficients=  1.3796524000D-01
     Exponent=  4.4453796000D-01 Coefficients=  4.7831935000D-01
 S 1 1.00
     Exponent=  1.2194962000D-01 Coefficients=  1.0000000000D+00
 P 1 1.00
     Exponent=  8.0000000000D-01 Coefficients=  1.0000000000D+00
 ****
 Centers:       1      2      3      4      5      6      7      8     10     11
 Centers:      23     24     43     44     45
 S 5 1.00
     Exponent=  1.2384016938D+03 Coefficients=  5.4568832082D-03
     Exponent=  1.8629004992D+02 Coefficients=  4.0638409211D-02
     Exponent=  4.2251176346D+01 Coefficients=  1.8025593888D-01
     Exponent=  1.1676557932D+01 Coefficients=  4.6315121755D-01
     Exponent=  3.5930506482D+00 Coefficients=  4.4087173314D-01
 S 1 1.00
     Exponent=  4.0245147363D-01 Coefficients=  1.0000000000D+00
 S 1 1.00
     Exponent=  1.3090182668D-01 Coefficients=  1.0000000000D+00
 P 3 1.00
     Exponent=  9.4680970621D+00 Coefficients=  3.8387871728D-02
     Exponent=  2.0103545142D+00 Coefficients=  2.1117025112D-01
     Exponent=  5.4771004707D-01 Coefficients=  5.1328172114D-01
 P 1 1.00
     Exponent=  1.5268613795D-01 Coefficients=  1.0000000000D+00
 D 1 1.00
     Exponent=  8.0000000000D-01 Coefficients=  1.0000000000D+00
 ****
 Centers:       9     18     19     21     22     31     32     33     37     38
 Centers:      39     40     41     42
 S 5 1.00
     Exponent=  2.2661767785D+03 Coefficients= -5.3431809926D-03
     Exponent=  3.4087010191D+02 Coefficients= -3.9890039230D-02
     Exponent=  7.7363135167D+01 Coefficients= -1.7853911985D-01
     Exponent=  2.1479644940D+01 Coefficients= -4.6427684959D-01
     Exponent=  6.6589433124D+00 Coefficients= -4.4309745172D-01
 S 1 1.00
     Exponent=  8.0975975668D-01 Coefficients=  1.0000000000D+00
 S 1 1.00
     Exponent=  2.5530772234D-01 Coefficients=  1.0000000000D+00
 P 3 1.00
     Exponent=  1.7721504317D+01 Coefficients=  4.3394573193D-02
     Exponent=  3.8635505440D+00 Coefficients=  2.3094120765D-01
     Exponent=  1.0480920883D+00 Coefficients=  5.1375311064D-01
 P 1 1.00
     Exponent=  2.7641544411D-01 Coefficients=  1.0000000000D+00
 D 1 1.00
     Exponent=  1.2000000000D+00 Coefficients=  1.0000000000D+00
 ****
 Centers:      46     47     48     49     50     51     52     53     54
 S 5 1.00
     Exponent=  2.8948325990D+03 Coefficients= -5.3408255515D-03
     Exponent=  4.3541939120D+02 Coefficients= -3.9904258866D-02
     Exponent=  9.8843328866D+01 Coefficients= -1.7912768038D-01
     Exponent=  2.7485198001D+01 Coefficients= -4.6758090825D-01
     Exponent=  8.5405498171D+00 Coefficients= -4.4653131020D-01
 S 1 1.00
     Exponent=  1.0654578038D+00 Coefficients=  1.0000000000D+00
 S 1 1.00
     Exponent=  3.3247346748D-01 Coefficients=  1.0000000000D+00
 P 3 1.00
     Exponent=  2.2696633924D+01 Coefficients= -4.5212874436D-02
     Exponent=  4.9872339257D+00 Coefficients= -2.3754317067D-01
     Exponent=  1.3491613954D+00 Coefficients= -5.1287353587D-01
 P 1 1.00
     Exponent=  3.4829881977D-01 Coefficients=  1.0000000000D+00
 D 1 1.00
     Exponent=  1.4000000000D+00 Coefficients=  1.0000000000D+00
 ****
 Centers:      34     35     36
 S 5 1.00
     Exponent=  9.1849303010D+03 Coefficients= -2.2294387756D-03
     Exponent=  1.3815105503D+03 Coefficients= -1.6683029937D-02
     Exponent=  3.1387147580D+02 Coefficients= -7.5262436116D-02
     Exponent=  8.8053870623D+01 Coefficients= -1.9376827038D-01
     Exponent=  2.7039914905D+01 Coefficients= -1.7718020803D-01
 S 3 1.00
     Exponent=  4.5648731303D+01 Coefficients= -1.0736062573D-01
     Exponent=  4.9664522326D+00 Coefficients=  6.5066293018D-01
     Exponent=  2.0116242047D+00 Coefficients=  5.9712155354D-01
 S 1 1.00
     Exponent=  3.5661077013D-01 Coefficients=  1.0000000000D+00
 S 1 1.00
     Exponent=  1.3507221477D-01 Coefficients=  1.0000000000D+00
 P 5 1.00
     Exponent=  2.6198233439D+02 Coefficients= -9.2729929822D-03
     Exponent=  6.1306894736D+01 Coefficients= -6.6547669241D-02
     Exponent=  1.9103729887D+01 Coefficients= -2.4828595903D-01
     Exponent=  6.6567720378D+00 Coefficients= -4.8703847402D-01
     Exponent=  2.3959635161D+00 Coefficients= -3.9337850312D-01
 P 1 1.00
     Exponent=  6.1776161679D-01 Coefficients=  1.0000000000D+00
 P 1 1.00
     Exponent=  1.6993376871D-01 Coefficients=  1.0000000000D+00
 D 1 1.00
     Exponent=  5.5000000000D-01 Coefficients=  1.0000000000D+00
 ****
 Centers:      20
 S 5 1.00
     Exponent=  9.1972903000D+04 Coefficients=  5.1000000000D-05
     Exponent=  1.3787371000D+04 Coefficients=  3.8600000000D-04
     Exponent=  3.1236135000D+03 Coefficients=  1.8440000000D-03
     Exponent=  8.7147540000D+02 Coefficients=  5.3560000000D-03
     Exponent=  2.5046300000D+02 Coefficients=  8.8590000000D-03
 S 1 1.00
     Exponent=  5.8282700000D+01 Coefficients=  1.0000000000D+00
 S 1 1.00
     Exponent=  4.1630500000D+01 Coefficients=  1.0000000000D+00
 S 1 1.00
     Exponent=  2.0216400000D+01 Coefficients=  1.0000000000D+00
 S 1 1.00
     Exponent=  4.9972000000D+00 Coefficients=  1.0000000000D+00
 S 1 1.00
     Exponent=  2.4822000000D+00 Coefficients=  1.0000000000D+00
 S 1 1.00
     Exponent=  9.1790000000D-01 Coefficients=  1.0000000000D+00
 S 1 1.00
     Exponent=  3.8530000000D-01 Coefficients=  1.0000000000D+00
 S 1 1.00
     Exponent=  6.1400000000D-02 Coefficients=  1.0000000000D+00
 S 1 1.00
     Exponent=  2.5000000000D-02 Coefficients=  1.0000000000D+00
 P 3 1.00
     Exponent=  1.2274108000D+01 Coefficients= -1.5252141000D-01
     Exponent=  1.0695631000D+01 Coefficients= -2.0243492000D-01
     Exponent=  2.0359782000D+00 Coefficients= -1.9621046000D-01
 P 6 1.00
     Exponent=  1.4975567000D+03 Coefficients= -1.0182934000D-03
     Exponent=  3.7504101000D+02 Coefficients= -6.0919401000D-03
     Exponent=  1.2869727000D+02 Coefficients= -1.7077693000D-02
     Exponent=  4.5270759000D+01 Coefficients= -3.5655508000D-02
     Exponent=  1.4906971000D+01 Coefficients=  2.3732226000D-01
     Exponent=  5.6450858000D+00 Coefficients= -3.0559689000D-01
 P 1 1.00
     Exponent=  3.6752106000D+00 Coefficients=  1.0000000000D+00
 P 1 1.00
     Exponent=  1.3296961000D+00 Coefficients=  1.0000000000D+00
 P 1 1.00
     Exponent=  5.5338966000D-01 Coefficients=  1.0000000000D+00
 P 1 1.00
     Exponent=  2.2382350000D-01 Coefficients=  1.0000000000D+00
 P 1 1.00
     Exponent=  6.8350467650D-02 Coefficients=  1.0000000000D+00
 P 1 1.00
     Exponent=  2.5355670803D-02 Coefficients=  1.0000000000D+00
 D 6 1.00
     Exponent=  4.6976060000D+02 Coefficients=  1.9840000000D-03
     Exponent=  1.4261280000D+02 Coefficients=  1.6013000000D-02
     Exponent=  5.5126700000D+01 Coefficients=  6.3153000000D-02
     Exponent=  2.3441500000D+01 Coefficients=  1.3780000000D-01
     Exponent=  9.4951000000D+00 Coefficients=  2.8549800000D-01
     Exponent=  4.5792000000D+00 Coefficients=  4.3830900000D-01
 D 1 1.00
     Exponent=  2.1646000000D+00 Coefficients=  1.0000000000D+00
 D 1 1.00
     Exponent=  9.2380000000D-01 Coefficients=  1.0000000000D+00
 D 1 1.00
     Exponent=  3.1070000000D-01 Coefficients=  1.0000000000D+00
 D 1 1.00
     Exponent=  9.1400000000D-02 Coefficients=  1.0000000000D+00
 F 5 1.00
     Exponent=  1.4202930000D+02 Coefficients=  5.9570000000D-03
     Exponent=  5.1086200000D+01 Coefficients=  5.3180000000D-02
     Exponent=  2.2874100000D+01 Coefficients=  1.7807600000D-01
     Exponent=  1.0502500000D+01 Coefficients=  3.0060000000D-01
     Exponent=  4.7872000000D+00 Coefficients=  3.5034200000D-01
 F 1 1.00
     Exponent=  2.1088000000D+00 Coefficients=  1.0000000000D+00
 F 1 1.00
     Exponent=  8.6090000000D-01 Coefficients=  1.0000000000D+00
 F 1 1.00
     Exponent=  3.0600000000D-01 Coefficients=  1.0000000000D+00
 G 1 1.00
     Exponent=  5.1330000000D-01 Coefficients=  1.0000000000D+00
 ****
 ======================================================================================================
                                       Pseudopotential Parameters
 ======================================================================================================
  Center     Atomic      Valence      Angular      Power
  Number     Number     Electrons     Momentum     of R      Exponent        Coefficient   SO-Coeffient
 ======================================================================================================
    1          6
                                   No pseudopotential on this center.
    2          6
                                   No pseudopotential on this center.
    3          6
                                   No pseudopotential on this center.
    4          6
                                   No pseudopotential on this center.
    5          6
                                   No pseudopotential on this center.
    6          6
                                   No pseudopotential on this center.
    7          6
                                   No pseudopotential on this center.
    8          6
                                   No pseudopotential on this center.
    9          8
                                   No pseudopotential on this center.
   10          6
                                   No pseudopotential on this center.
   11          6
                                   No pseudopotential on this center.
   12          1
                                   No pseudopotential on this center.
   13          1
                                   No pseudopotential on this center.
   14          1
                                   No pseudopotential on this center.
   15          1
                                   No pseudopotential on this center.
   16          1
                                   No pseudopotential on this center.
   17          1
                                   No pseudopotential on this center.
   18          8
                                   No pseudopotential on this center.
   19          8
                                   No pseudopotential on this center.
   20         70           42
                                      H and up 
                                                     2        1.0000000        0.00000000    0.00000000
                                      S - H
                                                     2       32.4244840      891.01377700    0.00000000
                                      P - H
                                                     2       18.6562320      264.03695300    0.00000000
                                      D - H
                                                     2       10.4902220       73.92391900    0.00000000
                                      F - H
                                                     2       20.7741830      -39.59217300    0.00000000
                                      G - H
                                                     2       28.4310280      -34.63863800    0.00000000
   21          8
                                   No pseudopotential on this center.
   22          8
                                   No pseudopotential on this center.
   23          6
                                   No pseudopotential on this center.
   24          6
                                   No pseudopotential on this center.
   25          1
                                   No pseudopotential on this center.
   26          1
                                   No pseudopotential on this center.
   27          1
                                   No pseudopotential on this center.
   28          1
                                   No pseudopotential on this center.
   29          1
                                   No pseudopotential on this center.
   30          1
                                   No pseudopotential on this center.
   31          8
                                   No pseudopotential on this center.
   32          8
                                   No pseudopotential on this center.
   33          8
                                   No pseudopotential on this center.
   34         16
                                   No pseudopotential on this center.
   35         16
                                   No pseudopotential on this center.
   36         16
                                   No pseudopotential on this center.
   37          8
                                   No pseudopotential on this center.
   38          8
                                   No pseudopotential on this center.
   39          8
                                   No pseudopotential on this center.
   40          8
                                   No pseudopotential on this center.
   41          8
                                   No pseudopotential on this center.
   42          8
                                   No pseudopotential on this center.
   43          6
                                   No pseudopotential on this center.
   44          6
                                   No pseudopotential on this center.
   45          6
                                   No pseudopotential on this center.
   46          9
                                   No pseudopotential on this center.
   47          9
                                   No pseudopotential on this center.
   48          9
                                   No pseudopotential on this center.
   49          9
                                   No pseudopotential on this center.
   50          9
                                   No pseudopotential on this center.
   51          9
                                   No pseudopotential on this center.
   52          9
                                   No pseudopotential on this center.
   53          9
                                   No pseudopotential on this center.
   54          9
                                   No pseudopotential on this center.
 ======================================================================================================
 Ernie: Thresh=  0.10000D-02 Tol=  0.10000D-05 Strict=F.
 There are   806 symmetry adapted cartesian basis functions of A   symmetry.
 There are   742 symmetry adapted basis functions of A   symmetry.
   742 basis functions,  1359 primitive gaussians,   806 cartesian basis functions
   193 alpha electrons      192 beta electrons
       nuclear repulsion energy      8552.4521634389 Hartrees.
 IExCor= 7252 DFT=T Ex+Corr=MN15 ExCW=0 ScaHFX=  0.440000
 ScaDFX=  1.000000  1.000000  1.000000  1.000000 ScalE2=  1.000000  1.000000
 IRadAn=      5 IRanWt=     -1 IRanGd=            0 ICorTp=0 IEmpDi=  4
 NAtoms=   54 NActive=   54 NUniq=   54 SFac= 1.00D+00 NAtFMM=   60 NAOKFM=F Big=F
 Integral buffers will be    131072 words long.
 Raffenetti 2 integral format.
 Two-electron integral symmetry is turned on.
 Force inversion solution in PCM.
 ------------------------------------------------------------------------------
 Polarizable Continuum Model (PCM)
 =================================
 Model                : PCM.
 Atomic radii         : SMD-Coulomb.
 Polarization charges : Total charges.
 Charge compensation  : None.
 Solution method      : Matrix inversion.
 Cavity type          : VdW (van der Waals Surface) (Alpha=1.000).
 Cavity algorithm     : GePol (No added spheres)
                        Default sphere list used, NSphG=   54.
                        Lebedev-Laikov grids with approx.  5.0 points / Ang**2.
                        Smoothing algorithm: York/Karplus (Gamma=1.0000).
                        Polarization charges: spherical gaussians, with
                                              point-specific exponents (IZeta= 3).
                        Self-potential: point-specific (ISelfS= 7).
                        Self-field    : sphere-specific E.n sum rule (ISelfD= 2).
 1st derivatives      : Analytical E(r).r(x)/FMM algorithm (CHGder, D1EAlg=3).
                        Cavity 1st derivative terms included.
 2nd derivatives      : Analytical E(r).r(xy)/FMM algorithm (CHGder, D2EAlg=3).
                        Cavity 2nd derivative terms included.
 Solvent              : DiChloroEthane, Eps=  10.125000 Eps(inf)=   2.087447
 ------------------------------------------------------------------------------
 GePol: Number of generator spheres                  =      54
 GePol: Total number of spheres                      =      54
 GePol: Number of exposed spheres                    =      54 (100.00%)
 GePol: Number of points                             =    4049
 GePol: Average weight of points                     =       0.14
 GePol: Minimum weight of points                     =   0.20D-11
 GePol: Maximum weight of points                     =    0.21501
 GePol: Number of points with low weight             =     222
 GePol: Fraction of low-weight points (<1% of avg)   =       5.48%
 GePol: Cavity surface area                          =    556.688 Ang**2
 GePol: Cavity volume                                =    648.923 Ang**3
 ------------------------------------------------------------------------------
 Atomic radii for non-electrostatic terms: SMD-CDS.
 ------------------------------------------------------------------------------
 PCM non-electrostatic energy =         0.0042907905 Hartrees.
 Nuclear repulsion after PCM non-electrostatic terms =     8552.4564542294 Hartrees.
 Leave Link  301 at Fri Feb 21 18:21:37 2025, MaxMem= 82678120448 cpu:               5.8 elap:               0.3
 (Enter /sysapps/ubuntu-applications/gaussian-new/avx/g16/l302.exe)
 NPDir=0 NMtPBC=     1 NCelOv=     1 NCel=       1 NClECP=     1 NCelD=      1
         NCelK=      1 NCelE2=     1 NClLst=     1 CellRange=     0.0.
 One-electron integrals computed using PRISM.
 One-electron integral symmetry used in STVInt
   1 Symmetry operations used in ECPInt.
 ECPInt:  NShTT=   50086 NPrTT=  191923 LenC2=   38574 LenP2D=   89732.
 LDataN:  DoStor=T MaxTD1= 9 Len=  602
 NBasis=   742 RedAO= T EigKep=  3.12D-04  NBF=   742
 NBsUse=   742 1.00D-06 EigRej= -1.00D+00 NBFU=   742
 Precomputing XC quadrature grid using
 IXCGrd= 4 IRadAn=           5 IRanWt=          -1 IRanGd=           0 AccXCQ= 0.00D+00.
 Defaulting to unpruned grid for atomic number  70.
 Generated NRdTot=       0 NPtTot=           0 NUsed=           0 NTot=          32
 NSgBfM=   759   758   759   759   759 MxSgAt=    54 MxSgA2=    54.
 Leave Link  302 at Fri Feb 21 18:21:38 2025, MaxMem= 82678120448 cpu:              40.3 elap:               1.7
 (Enter /sysapps/ubuntu-applications/gaussian-new/avx/g16/l303.exe)
 DipDrv:  MaxL=1.
 Leave Link  303 at Fri Feb 21 18:21:39 2025, MaxMem= 82678120448 cpu:               4.7 elap:               0.3
 (Enter /sysapps/ubuntu-applications/gaussian-new/avx/g16/l401.exe)
 ExpMin= 2.50D-02 ExpMax= 9.20D+04 ExpMxC= 1.38D+04 IAcc=3 IRadAn=         5 AccDes= 0.00D+00
 Harris functional with IExCor= 1009 and IRadAn=       5 diagonalized for initial guess.
 HarFok:  IExCor= 1009 AccDes= 0.00D+00 IRadAn=         5 IDoV= 1 UseB2=F ITyADJ=14
 ICtDFT=  3500011 ScaDFX=  1.000000  1.000000  1.000000  1.000000
 Defaulting to unpruned grid for atomic number  70.
 FoFCou: FMM=F IPFlag=           0 FMFlag=      100000 FMFlg1=           0
         NFxFlg=           0 DoJE=T BraDBF=F KetDBF=T FulRan=T
         wScrn=  0.000000 ICntrl=       500 IOpCl=  0 I1Cent=   200000004 NGrid=           0
         NMat0=    1 NMatS0=      1 NMatT0=    0 NMatD0=    1 NMtDS0=    0 NMtDT0=    0
 Petite list used in FoFCou.
 Harris En= -4882.41641338257    
 JPrj=0 DoOrth=F DoCkMO=F.
 Initial guess <Sx>= 0.0000 <Sy>= 0.0000 <Sz>= 0.5000 <S**2>= 0.7500 S= 0.5000
 Leave Link  401 at Fri Feb 21 18:21:42 2025, MaxMem= 82678120448 cpu:              84.8 elap:               3.6
 (Enter /sysapps/ubuntu-applications/gaussian-new/avx/g16/l502.exe)
 Integral symmetry usage will be decided dynamically.
 UHF open shell SCF:
 Using DIIS extrapolation, IDIIS=  1040.
 NGot= 82678120448 LenX= 82676793984 LenY= 82676143542
 Requested convergence on RMS density matrix=1.00D-08 within 500 cycles.
 Requested convergence on MAX density matrix=1.00D-06.
 Requested convergence on             energy=1.00D-06.
 No special actions if energy rises.
 Fock matrices will be formed incrementally for  20 cycles.

 Cycle   1  Pass 1  IDiag  1:
 FoFJK:  IHMeth= 1 ICntrl=       0 DoSepK=F KAlg= 0 I1Cent=           0 FoldK=F
 IRaf= 680000000 NMat=       1 IRICut=       1 DoRegI=T DoRafI=F ISym2E= 0 IDoP0=0 IntGTp=1.
 FoFCou: FMM=F IPFlag=           0 FMFlag=      100000 FMFlg1=           0
         NFxFlg=           0 DoJE=F BraDBF=F KetDBF=F FulRan=T
         wScrn=  0.000000 ICntrl=         0 IOpCl=  1 I1Cent=           0 NGrid=           0
         NMat0=    1 NMatS0=      1 NMatT0=    0 NMatD0=    1 NMtDS0=    0 NMtDT0=    0
 Symmetry not used in FoFCou.
 Defaulting to unpruned grid for atomic number  70.
 Defaulting to unpruned grid for atomic number  70.
 Defaulting to unpruned grid for atomic number  70.
 Defaulting to unpruned grid for atomic number  70.
 Defaulting to unpruned grid for atomic number  70.
 Defaulting to unpruned grid for atomic number  70.
 Defaulting to unpruned grid for atomic number  70.
 Defaulting to unpruned grid for atomic number  70.
 Defaulting to unpruned grid for atomic number  70.
 Defaulting to unpruned grid for atomic number  70.
 Defaulting to unpruned grid for atomic number  70.
 Defaulting to unpruned grid for atomic number  70.
 Defaulting to unpruned grid for atomic number  70.
 Defaulting to unpruned grid for atomic number  70.
 Defaulting to unpruned grid for atomic number  70.
 Defaulting to unpruned grid for atomic number  70.
 Defaulting to unpruned grid for atomic number  70.
 Defaulting to unpruned grid for atomic number  70.
 Defaulting to unpruned grid for atomic number  70.
 Defaulting to unpruned grid for atomic number  70.
 Defaulting to unpruned grid for atomic number  70.
 Defaulting to unpruned grid for atomic number  70.
 Defaulting to unpruned grid for atomic number  70.
 Defaulting to unpruned grid for atomic number  70.
 Inv3:  Mode=1 IEnd=    49183203.
 Iteration    1 A*A^-1 deviation from unit magnitude is 6.88D-15 for   4044.
 Iteration    1 A*A^-1 deviation from orthogonality  is 6.09D-15 for   4023   3113.
 Iteration    1 A^-1*A deviation from unit magnitude is 6.88D-15 for   4044.
 Iteration    1 A^-1*A deviation from orthogonality  is 1.73D-15 for   2317   1500.
 E= -4876.95833728675    
 DIIS: error= 1.90D-01 at cycle   1 NSaved=   1.
 NSaved= 1 IEnMin= 1 EnMin= -4876.95833728675     IErMin= 1 ErrMin= 1.90D-01
 ErrMax= 1.90D-01  0.00D+00 EMaxC= 1.00D-01 BMatC= 1.37D+02 BMatP= 1.37D+02
 IDIUse=3 WtCom= 0.00D+00 WtEn= 1.00D+00
 Coeff-Com:  0.100D+01
 Coeff-En:   0.100D+01
 Coeff:      0.100D+01
 Gap=     0.201 Goal=   None    Shift=    0.000
 Gap=     0.147 Goal=   None    Shift=    0.000
 GapD=    0.147 DampG=1.000 DampE=0.125 DampFc=0.1250 IDamp=-1.
 Damping current iteration by 1.25D-01
 RMSDP=1.20D-02 MaxDP=1.00D+00              OVMax= 9.89D-01

 Cycle   2  Pass 1  IDiag  1:
 RMSU=  1.49D-03    CP:  9.92D-01
 E= -4878.33747028234     Delta-E=       -1.379132995589 Rises=F Damp=T
 DIIS: error= 7.35D-02 at cycle   2 NSaved=   2.
 NSaved= 2 IEnMin= 2 EnMin= -4878.33747028234     IErMin= 2 ErrMin= 7.35D-02
 ErrMax= 7.35D-02  0.00D+00 EMaxC= 1.00D-01 BMatC= 2.65D+01 BMatP= 1.37D+02
 IDIUse=3 WtCom= 2.65D-01 WtEn= 7.35D-01
 Coeff-Com: -0.616D+00 0.162D+01
 Coeff-En:   0.241D+00 0.759D+00
 Coeff:      0.144D-01 0.986D+00
 Gap=     0.032 Goal=   None    Shift=    0.000
 Gap=     0.044 Goal=   None    Shift=    0.000
 RMSDP=3.48D-03 MaxDP=4.64D-01 DE=-1.38D+00 OVMax= 9.62D-01

 Cycle   3  Pass 1  IDiag  1:
 RMSU=  3.45D-03    CP:  9.74D-01  7.58D-01
 E= -4878.16008206180     Delta-E=        0.177388220547 Rises=F Damp=F
 DIIS: error= 7.74D-02 at cycle   3 NSaved=   3.
 NSaved= 3 IEnMin= 2 EnMin= -4878.33747028234     IErMin= 2 ErrMin= 7.35D-02
 ErrMax= 7.74D-02  0.00D+00 EMaxC= 1.00D-01 BMatC= 3.39D+01 BMatP= 2.65D+01
 IDIUse=2 WtCom= 0.00D+00 WtEn= 1.00D+00
 EnCoef did     4 forward-backward iterations
 Coeff-En:   0.146D+00 0.384D+00 0.470D+00
 Coeff:      0.146D+00 0.384D+00 0.470D+00
 Gap=     0.582 Goal=   None    Shift=    0.000
 Gap=     0.584 Goal=   None    Shift=    0.000
 RMSDP=8.96D-03 MaxDP=2.51D+00 DE= 1.77D-01 OVMax= 1.00D+00

 Cycle   4  Pass 1  IDiag  1:
 RMSU=  8.24D-03    CP:  9.55D-01  2.37D+00  2.60D-01
 E= -4768.75159518748     Delta-E=      109.408486874310 Rises=F Damp=F
 DIIS: error= 4.98D-01 at cycle   4 NSaved=   4.
 NSaved= 4 IEnMin= 2 EnMin= -4878.33747028234     IErMin= 2 ErrMin= 7.35D-02
 ErrMax= 4.98D-01  0.00D+00 EMaxC= 1.00D-01 BMatC= 7.64D+02 BMatP= 2.65D+01
 IDIUse=2 WtCom= 0.00D+00 WtEn= 1.00D+00
 EnCoef did   100 forward-backward iterations
 Coeff-En:   0.444D+00 0.209D-01 0.471D+00 0.636D-01
 Coeff:      0.444D+00 0.209D-01 0.471D+00 0.636D-01
 Gap=     0.021 Goal=   None    Shift=    0.000
 Gap=    -0.009 Goal=   None    Shift=    0.000
 RMSDP=8.64D-03 MaxDP=2.54D+00 DE= 1.09D+02 OVMax= 9.99D-01

 Cycle   5  Pass 1  IDiag  1:
 RMSU=  1.67D-03    CP:  9.74D-01  5.78D-01  3.86D-01  2.50D-02
 E= -4880.94924857975     Delta-E=     -112.197653392266 Rises=F Damp=F
 DIIS: error= 5.30D-02 at cycle   5 NSaved=   5.
 NSaved= 5 IEnMin= 5 EnMin= -4880.94924857975     IErMin= 5 ErrMin= 5.30D-02
 ErrMax= 5.30D-02  0.00D+00 EMaxC= 1.00D-01 BMatC= 1.18D+01 BMatP= 2.65D+01
 IDIUse=3 WtCom= 4.70D-01 WtEn= 5.30D-01
 EnCoef did     2 forward-backward iterations
 Coeff-Com:  0.169D+00 0.120D+00 0.221D+00 0.189D-02 0.488D+00
 Coeff-En:   0.149D+00 0.000D+00 0.202D-01 0.000D+00 0.830D+00
 Coeff:      0.159D+00 0.566D-01 0.115D+00 0.889D-03 0.669D+00
 Gap=     0.711 Goal=   None    Shift=    0.000
 Gap=     0.102 Goal=   None    Shift=    0.000
 RMSDP=1.51D-03 MaxDP=3.03D-01 DE=-1.12D+02 OVMax= 9.41D-01

 Cycle   6  Pass 1  IDiag  1:
 RMSU=  7.23D-04    CP:  9.84D-01  4.37D-01  4.91D-01  2.99D-03  2.62D-01
 E= -4880.95433350362     Delta-E=       -0.005084923871 Rises=F Damp=F
 DIIS: error= 6.37D-02 at cycle   6 NSaved=   6.
 NSaved= 6 IEnMin= 6 EnMin= -4880.95433350362     IErMin= 5 ErrMin= 5.30D-02
 ErrMax= 6.37D-02  0.00D+00 EMaxC= 1.00D-01 BMatC= 1.48D+01 BMatP= 1.18D+01
 IDIUse=2 WtCom= 0.00D+00 WtEn= 1.00D+00
 Coeff-En:   0.000D+00 0.000D+00 0.000D+00 0.000D+00 0.499D+00 0.501D+00
 Coeff:      0.000D+00 0.000D+00 0.000D+00 0.000D+00 0.499D+00 0.501D+00
 Gap=     0.155 Goal=   None    Shift=    0.000
 Gap=     0.143 Goal=   None    Shift=    0.000
 RMSDP=6.86D-04 MaxDP=1.07D-01 DE=-5.08D-03 OVMax= 1.23D-01

 Cycle   7  Pass 1  IDiag  1:
 RMSU=  4.88D-04    CP:  9.78D-01  4.55D-01  4.23D-01  1.01D-02  4.61D-01
                    CP:  6.95D-01
 E= -4881.61810239641     Delta-E=       -0.663768892786 Rises=F Damp=F
 DIIS: error= 1.03D-02 at cycle   7 NSaved=   7.
 NSaved= 7 IEnMin= 7 EnMin= -4881.61810239641     IErMin= 7 ErrMin= 1.03D-02
 ErrMax= 1.03D-02  0.00D+00 EMaxC= 1.00D-01 BMatC= 4.91D-01 BMatP= 1.18D+01
 IDIUse=3 WtCom= 8.97D-01 WtEn= 1.03D-01
 Coeff-Com: -0.157D+00 0.230D+00-0.512D-02-0.491D-02 0.129D+00 0.200D+00
 Coeff-Com:  0.609D+00
 Coeff-En:   0.000D+00 0.000D+00 0.000D+00 0.000D+00 0.117D+00 0.000D+00
 Coeff-En:   0.883D+00
 Coeff:     -0.141D+00 0.206D+00-0.459D-02-0.441D-02 0.128D+00 0.179D+00
 Coeff:      0.637D+00
 Gap=     0.175 Goal=   None    Shift=    0.000
 Gap=     0.194 Goal=   None    Shift=    0.000
 RMSDP=2.09D-04 MaxDP=3.09D-02 DE=-6.64D-01 OVMax= 5.16D-02

 Cycle   8  Pass 1  IDiag  1:
 RMSU=  1.93D-04    CP:  9.78D-01  4.85D-01  4.38D-01  9.78D-03  4.83D-01
                    CP:  6.80D-01  9.82D-01
 E= -4881.61795804787     Delta-E=        0.000144348533 Rises=F Damp=F
 DIIS: error= 1.51D-02 at cycle   8 NSaved=   8.
 NSaved= 8 IEnMin= 7 EnMin= -4881.61810239641     IErMin= 7 ErrMin= 1.03D-02
 ErrMax= 1.51D-02  0.00D+00 EMaxC= 1.00D-01 BMatC= 8.91D-01 BMatP= 4.91D-01
 IDIUse=2 WtCom= 0.00D+00 WtEn= 1.00D+00
 EnCoef did     8 forward-backward iterations
 Coeff-En:   0.000D+00 0.000D+00 0.000D+00 0.000D+00 0.126D+00 0.000D+00
 Coeff-En:   0.242D+00 0.632D+00
 Coeff:      0.000D+00 0.000D+00 0.000D+00 0.000D+00 0.126D+00 0.000D+00
 Coeff:      0.242D+00 0.632D+00
 Gap=     0.165 Goal=   None    Shift=    0.000
 Gap=     0.171 Goal=   None    Shift=    0.000
 RMSDP=8.52D-04 MaxDP=1.88D-01 DE= 1.44D-04 OVMax= 7.63D-01

 Cycle   9  Pass 1  IDiag  1:
 RMSU=  5.29D-04    CP:  9.74D-01  5.56D-01  4.07D-01  1.90D-02  8.08D-01
                    CP:  4.46D-01  5.51D-01 -7.99D-02
 E= -4881.35941417806     Delta-E=        0.258543869819 Rises=F Damp=F
 DIIS: error= 3.84D-02 at cycle   9 NSaved=   9.
 NSaved= 9 IEnMin= 7 EnMin= -4881.61810239641     IErMin= 7 ErrMin= 1.03D-02
 ErrMax= 3.84D-02  0.00D+00 EMaxC= 1.00D-01 BMatC= 5.81D+00 BMatP= 4.91D-01
 IDIUse=2 WtCom= 0.00D+00 WtEn= 1.00D+00
 EnCoef did    13 forward-backward iterations
 Coeff-En:   0.000D+00 0.000D+00 0.000D+00 0.000D+00 0.000D+00 0.000D+00
 Coeff-En:   0.779D-01 0.694D+00 0.228D+00
 Coeff:      0.000D+00 0.000D+00 0.000D+00 0.000D+00 0.000D+00 0.000D+00
 Coeff:      0.779D-01 0.694D+00 0.228D+00
 Gap=     0.125 Goal=   None    Shift=    0.000
 Gap=     0.008 Goal=   None    Shift=    0.000
 RMSDP=6.69D-04 MaxDP=1.64D-01 DE= 2.59D-01 OVMax= 6.54D-01

 Cycle  10  Pass 1  IDiag  1:
 RMSU=  1.59D-04    CP:  9.76D-01  5.03D-01  4.01D-01  1.25D-02  5.94D-01
                    CP:  7.06D-01  1.16D+00  6.75D-01  2.93D-01
 E= -4881.66609063284     Delta-E=       -0.306676454786 Rises=F Damp=F
 DIIS: error= 5.75D-03 at cycle  10 NSaved=  10.
 NSaved=10 IEnMin=10 EnMin= -4881.66609063284     IErMin=10 ErrMin= 5.75D-03
 ErrMax= 5.75D-03  0.00D+00 EMaxC= 1.00D-01 BMatC= 1.10D-01 BMatP= 4.91D-01
 IDIUse=3 WtCom= 9.43D-01 WtEn= 5.75D-02
 Coeff-Com: -0.201D-01 0.363D-01-0.332D-02-0.278D-03-0.196D-01 0.310D-03
 Coeff-Com: -0.195D+00 0.412D+00 0.131D-01 0.776D+00
 Coeff-En:   0.000D+00 0.000D+00 0.000D+00 0.000D+00 0.000D+00 0.000D+00
 Coeff-En:   0.000D+00 0.557D-01 0.000D+00 0.944D+00
 Coeff:     -0.189D-01 0.342D-01-0.313D-02-0.262D-03-0.185D-01 0.292D-03
 Coeff:     -0.184D+00 0.392D+00 0.124D-01 0.786D+00
 Gap=     0.167 Goal=   None    Shift=    0.000
 Gap=     0.126 Goal=   None    Shift=    0.000
 RMSDP=1.49D-04 MaxDP=2.08D-02 DE=-3.07D-01 OVMax= 9.87D-02

 Cycle  11  Pass 1  IDiag  1:
 RMSU=  7.42D-05    CP:  9.76D-01  5.00D-01  4.09D-01  1.18D-02  5.63D-01
                    CP:  7.17D-01  1.17D+00  1.11D+00  1.84D-01  6.75D-01
 E= -4881.66996705246     Delta-E=       -0.003876419614 Rises=F Damp=F
 DIIS: error= 3.05D-03 at cycle  11 NSaved=  11.
 NSaved=11 IEnMin=11 EnMin= -4881.66996705246     IErMin=11 ErrMin= 3.05D-03
 ErrMax= 3.05D-03  0.00D+00 EMaxC= 1.00D-01 BMatC= 3.80D-02 BMatP= 1.10D-01
 IDIUse=3 WtCom= 9.69D-01 WtEn= 3.05D-02
 Coeff-Com: -0.411D-02 0.728D-02-0.856D-03-0.793D-04 0.435D-02 0.608D-02
 Coeff-Com: -0.129D+00 0.583D-01-0.116D-01 0.406D+00 0.663D+00
 Coeff-En:   0.000D+00 0.000D+00 0.000D+00 0.000D+00 0.000D+00 0.000D+00
 Coeff-En:   0.000D+00 0.000D+00 0.000D+00 0.248D+00 0.752D+00
 Coeff:     -0.399D-02 0.706D-02-0.830D-03-0.769D-04 0.422D-02 0.590D-02
 Coeff:     -0.125D+00 0.565D-01-0.113D-01 0.402D+00 0.666D+00
 Gap=     0.149 Goal=   None    Shift=    0.000
 Gap=     0.115 Goal=   None    Shift=    0.000
 RMSDP=4.90D-05 MaxDP=6.77D-03 DE=-3.88D-03 OVMax= 5.55D-03

 Cycle  12  Pass 1  IDiag  1:
 RMSU=  2.73D-05    CP:  9.76D-01  5.04D-01  4.05D-01  1.21D-02  5.77D-01
                    CP:  7.23D-01  1.18D+00  1.12D+00  1.80D-01  8.50D-01
                    CP:  1.00D+00
 E= -4881.67206639818     Delta-E=       -0.002099345726 Rises=F Damp=F
 DIIS: error= 6.31D-04 at cycle  12 NSaved=  12.
 NSaved=12 IEnMin=12 EnMin= -4881.67206639818     IErMin=12 ErrMin= 6.31D-04
 ErrMax= 6.31D-04  0.00D+00 EMaxC= 1.00D-01 BMatC= 1.82D-03 BMatP= 3.80D-02
 IDIUse=3 WtCom= 9.94D-01 WtEn= 6.31D-03
 Coeff-Com: -0.435D-03 0.719D-03 0.101D-03-0.409D-04 0.616D-02 0.439D-02
 Coeff-Com: -0.503D-01-0.385D-01-0.853D-02 0.127D+00 0.357D+00 0.602D+00
 Coeff-En:   0.000D+00 0.000D+00 0.000D+00 0.000D+00 0.000D+00 0.000D+00
 Coeff-En:   0.000D+00 0.000D+00 0.000D+00 0.000D+00 0.000D+00 0.100D+01
 Coeff:     -0.432D-03 0.715D-03 0.101D-03-0.407D-04 0.612D-02 0.436D-02
 Coeff:     -0.500D-01-0.383D-01-0.847D-02 0.126D+00 0.355D+00 0.605D+00
 Gap=     0.145 Goal=   None    Shift=    0.000
 Gap=     0.113 Goal=   None    Shift=    0.000
 RMSDP=2.08D-05 MaxDP=2.36D-03 DE=-2.10D-03 OVMax= 1.11D-02

 Cycle  13  Pass 1  IDiag  1:
 RMSU=  1.15D-05    CP:  9.76D-01  5.05D-01  4.04D-01  1.21D-02  5.80D-01
                    CP:  7.24D-01  1.19D+00  1.16D+00  1.68D-01  8.79D-01
                    CP:  1.16D+00  9.24D-01
 E= -4881.67226566773     Delta-E=       -0.000199269545 Rises=F Damp=F
 DIIS: error= 2.38D-04 at cycle  13 NSaved=  13.
 NSaved=13 IEnMin=13 EnMin= -4881.67226566773     IErMin=13 ErrMin= 2.38D-04
 ErrMax= 2.38D-04  0.00D+00 EMaxC= 1.00D-01 BMatC= 2.61D-04 BMatP= 1.82D-03
 IDIUse=3 WtCom= 9.98D-01 WtEn= 2.38D-03
 Coeff-Com:  0.119D-02-0.172D-02 0.410D-03 0.151D-04 0.288D-02 0.581D-03
 Coeff-Com: -0.887D-02-0.394D-01-0.369D-02-0.120D-02 0.780D-01 0.287D+00
 Coeff-Com:  0.685D+00
 Coeff-En:   0.000D+00 0.000D+00 0.000D+00 0.000D+00 0.000D+00 0.000D+00
 Coeff-En:   0.000D+00 0.000D+00 0.000D+00 0.000D+00 0.000D+00 0.000D+00
 Coeff-En:   0.100D+01
 Coeff:      0.119D-02-0.171D-02 0.409D-03 0.151D-04 0.287D-02 0.580D-03
 Coeff:     -0.885D-02-0.393D-01-0.368D-02-0.120D-02 0.778D-01 0.286D+00
 Coeff:      0.686D+00
 Gap=     0.142 Goal=   None    Shift=    0.000
 Gap=     0.112 Goal=   None    Shift=    0.000
 RMSDP=1.43D-05 MaxDP=2.24D-03 DE=-1.99D-04 OVMax= 1.01D-02

 Cycle  14  Pass 1  IDiag  1:
 RMSU=  4.47D-06    CP:  9.76D-01  5.06D-01  4.03D-01  1.22D-02  5.81D-01
                    CP:  7.26D-01  1.20D+00  1.19D+00  1.57D-01  8.94D-01
                    CP:  1.26D+00  1.16D+00  1.13D+00
 E= -4881.67232004837     Delta-E=       -0.000054380645 Rises=F Damp=F
 DIIS: error= 5.97D-05 at cycle  14 NSaved=  14.
 NSaved=14 IEnMin=14 EnMin= -4881.67232004837     IErMin=14 ErrMin= 5.97D-05
 ErrMax= 5.97D-05  0.00D+00 EMaxC= 1.00D-01 BMatC= 1.22D-05 BMatP= 2.61D-04
 IDIUse=1 WtCom= 1.00D+00 WtEn= 0.00D+00
 Coeff-Com:  0.116D-02-0.163D-02 0.345D-03 0.248D-04 0.697D-03-0.112D-02
 Coeff-Com:  0.514D-02-0.154D-01-0.151D-02-0.297D-01-0.237D-01 0.280D-01
 Coeff-Com:  0.317D+00 0.721D+00
 Coeff:      0.116D-02-0.163D-02 0.345D-03 0.248D-04 0.697D-03-0.112D-02
 Coeff:      0.514D-02-0.154D-01-0.151D-02-0.297D-01-0.237D-01 0.280D-01
 Coeff:      0.317D+00 0.721D+00
 Gap=     0.141 Goal=   None    Shift=    0.000
 Gap=     0.112 Goal=   None    Shift=    0.000
 RMSDP=9.85D-06 MaxDP=1.83D-03 DE=-5.44D-05 OVMax= 7.82D-03

 Cycle  15  Pass 1  IDiag  1:
 RMSU=  2.44D-06    CP:  9.76D-01  5.06D-01  4.03D-01  1.22D-02  5.81D-01
                    CP:  7.26D-01  1.20D+00  1.20D+00  1.47D-01  8.95D-01
                    CP:  1.34D+00  1.28D+00  1.41D+00  1.16D+00
 E= -4881.67233565721     Delta-E=       -0.000015608834 Rises=F Damp=F
 DIIS: error= 9.72D-05 at cycle  15 NSaved=  15.
 NSaved=15 IEnMin=15 EnMin= -4881.67233565721     IErMin=14 ErrMin= 5.97D-05
 ErrMax= 9.72D-05  0.00D+00 EMaxC= 1.00D-01 BMatC= 3.97D-05 BMatP= 1.22D-05
 IDIUse=1 WtCom= 1.00D+00 WtEn= 0.00D+00
 Coeff-Com:  0.221D-03-0.346D-03 0.368D-04 0.508D-05-0.671D-04-0.698D-03
 Coeff-Com:  0.434D-02 0.628D-02-0.692D-03-0.116D-01-0.158D-01-0.506D-01
 Coeff-Com: -0.934D-01 0.246D+00 0.916D+00
 Coeff:      0.221D-03-0.346D-03 0.368D-04 0.508D-05-0.671D-04-0.698D-03
 Coeff:      0.434D-02 0.628D-02-0.692D-03-0.116D-01-0.158D-01-0.506D-01
 Coeff:     -0.934D-01 0.246D+00 0.916D+00
 Gap=     0.141 Goal=   None    Shift=    0.000
 Gap=     0.112 Goal=   None    Shift=    0.000
 RMSDP=7.32D-06 MaxDP=1.47D-03 DE=-1.56D-05 OVMax= 5.98D-03

 Cycle  16  Pass 1  IDiag  1:
 RMSU=  1.17D-06    CP:  9.76D-01  5.06D-01  4.03D-01  1.22D-02  5.80D-01
                    CP:  7.26D-01  1.20D+00  1.21D+00  1.38D-01  8.89D-01
                    CP:  1.38D+00  1.37D+00  1.59D+00  1.57D+00  1.29D+00
 E= -4881.67234382290     Delta-E=       -0.000008165694 Rises=F Damp=F
 DIIS: error= 4.41D-05 at cycle  16 NSaved=  16.
 NSaved=16 IEnMin=16 EnMin= -4881.67234382290     IErMin=16 ErrMin= 4.41D-05
 ErrMax= 4.41D-05  0.00D+00 EMaxC= 1.00D-01 BMatC= 8.44D-06 BMatP= 1.22D-05
 IDIUse=1 WtCom= 1.00D+00 WtEn= 0.00D+00
 Coeff-Com: -0.222D-03 0.281D-03-0.704D-04-0.546D-05-0.593D-04-0.786D-04
 Coeff-Com:  0.166D-02 0.745D-02-0.320D-03-0.742D-03-0.199D-02-0.286D-01
 Coeff-Com: -0.115D+00-0.392D-01 0.458D+00 0.718D+00
 Coeff:     -0.222D-03 0.281D-03-0.704D-04-0.546D-05-0.593D-04-0.786D-04
 Coeff:      0.166D-02 0.745D-02-0.320D-03-0.742D-03-0.199D-02-0.286D-01
 Coeff:     -0.115D+00-0.392D-01 0.458D+00 0.718D+00
 Gap=     0.141 Goal=   None    Shift=    0.000
 Gap=     0.113 Goal=   None    Shift=    0.000
 RMSDP=3.19D-06 MaxDP=6.37D-04 DE=-8.17D-06 OVMax= 2.62D-03

 Cycle  17  Pass 1  IDiag  1:
 RMSU=  5.53D-07    CP:  9.76D-01  5.06D-01  4.04D-01  1.22D-02  5.80D-01
                    CP:  7.26D-01  1.20D+00  1.21D+00  1.34D-01  8.85D-01
                    CP:  1.40D+00  1.40D+00  1.67D+00  1.71D+00  1.61D+00
                    CP:  1.04D+00
 E= -4881.67234525162     Delta-E=       -0.000001428723 Rises=F Damp=F
 DIIS: error= 8.21D-06 at cycle  17 NSaved=  17.
 NSaved=17 IEnMin=17 EnMin= -4881.67234525162     IErMin=17 ErrMin= 8.21D-06
 ErrMax= 8.21D-06  0.00D+00 EMaxC= 1.00D-01 BMatC= 2.49D-07 BMatP= 8.44D-06
 IDIUse=1 WtCom= 1.00D+00 WtEn= 0.00D+00
 Coeff-Com: -0.164D-03 0.213D-03-0.379D-04-0.395D-05-0.223D-04 0.108D-03
 Coeff-Com:  0.720D-03 0.170D-02-0.379D-04-0.490D-03-0.219D-02-0.739D-02
 Coeff-Com: -0.279D-01-0.353D-01 0.454D-01 0.315D+00 0.710D+00
 Coeff:     -0.164D-03 0.213D-03-0.379D-04-0.395D-05-0.223D-04 0.108D-03
 Coeff:      0.720D-03 0.170D-02-0.379D-04-0.490D-03-0.219D-02-0.739D-02
 Coeff:     -0.279D-01-0.353D-01 0.454D-01 0.315D+00 0.710D+00
 Gap=     0.141 Goal=   None    Shift=    0.000
 Gap=     0.113 Goal=   None    Shift=    0.000
 RMSDP=9.66D-07 MaxDP=1.90D-04 DE=-1.43D-06 OVMax= 7.97D-04

 Cycle  18  Pass 1  IDiag  1:
 RMSU=  2.22D-07    CP:  9.76D-01  5.06D-01  4.04D-01  1.22D-02  5.80D-01
                    CP:  7.26D-01  1.20D+00  1.21D+00  1.33D-01  8.85D-01
                    CP:  1.40D+00  1.41D+00  1.69D+00  1.77D+00  1.69D+00
                    CP:  1.23D+00  9.94D-01
 E= -4881.67234534777     Delta-E=       -0.000000096146 Rises=F Damp=F
 DIIS: error= 1.10D-05 at cycle  18 NSaved=  18.
 NSaved=18 IEnMin=18 EnMin= -4881.67234534777     IErMin=17 ErrMin= 8.21D-06
 ErrMax= 1.10D-05  0.00D+00 EMaxC= 1.00D-01 BMatC= 4.42D-07 BMatP= 2.49D-07
 IDIUse=1 WtCom= 1.00D+00 WtEn= 0.00D+00
 Coeff-Com: -0.434D-04 0.561D-04-0.185D-05-0.936D-06-0.824D-05 0.684D-04
 Coeff-Com:  0.273D-03-0.819D-03 0.248D-04-0.741D-03-0.253D-02-0.907D-03
 Coeff-Com:  0.660D-02 0.405D-02-0.392D-01 0.342D-02 0.272D+00 0.758D+00
 Coeff:     -0.434D-04 0.561D-04-0.185D-05-0.936D-06-0.824D-05 0.684D-04
 Coeff:      0.273D-03-0.819D-03 0.248D-04-0.741D-03-0.253D-02-0.907D-03
 Coeff:      0.660D-02 0.405D-02-0.392D-01 0.342D-02 0.272D+00 0.758D+00
 Gap=     0.141 Goal=   None    Shift=    0.000
 Gap=     0.113 Goal=   None    Shift=    0.000
 RMSDP=3.32D-07 MaxDP=4.72D-05 DE=-9.61D-08 OVMax= 2.06D-04

 Cycle  19  Pass 1  IDiag  1:
 RMSU=  1.25D-07    CP:  9.76D-01  5.06D-01  4.04D-01  1.22D-02  5.80D-01
                    CP:  7.26D-01  1.20D+00  1.21D+00  1.33D-01  8.85D-01
                    CP:  1.41D+00  1.42D+00  1.70D+00  1.79D+00  1.73D+00
                    CP:  1.29D+00  1.17D+00  1.01D+00
 E= -4881.67234538611     Delta-E=       -0.000000038339 Rises=F Damp=F
 DIIS: error= 3.32D-06 at cycle  19 NSaved=  19.
 NSaved=19 IEnMin=19 EnMin= -4881.67234538611     IErMin=19 ErrMin= 3.32D-06
 ErrMax= 3.32D-06  0.00D+00 EMaxC= 1.00D-01 BMatC= 5.15D-08 BMatP= 2.49D-07
 IDIUse=1 WtCom= 1.00D+00 WtEn= 0.00D+00
 Coeff-Com:  0.874D-05-0.103D-04 0.693D-05 0.276D-06-0.511D-05 0.302D-04
 Coeff-Com: -0.110D-03-0.716D-03 0.903D-05 0.173D-03-0.441D-03 0.841D-03
 Coeff-Com:  0.566D-02 0.796D-02-0.160D-01-0.639D-01-0.737D-01 0.343D+00
 Coeff-Com:  0.797D+00
 Coeff:      0.874D-05-0.103D-04 0.693D-05 0.276D-06-0.511D-05 0.302D-04
 Coeff:     -0.110D-03-0.716D-03 0.903D-05 0.173D-03-0.441D-03 0.841D-03
 Coeff:      0.566D-02 0.796D-02-0.160D-01-0.639D-01-0.737D-01 0.343D+00
 Coeff:      0.797D+00
 Gap=     0.141 Goal=   None    Shift=    0.000
 Gap=     0.113 Goal=   None    Shift=    0.000
 RMSDP=1.56D-07 MaxDP=2.31D-05 DE=-3.83D-08 OVMax= 8.47D-05

 Cycle  20  Pass 1  IDiag  1:
 RMSU=  6.70D-08    CP:  9.76D-01  5.06D-01  4.04D-01  1.22D-02  5.80D-01
                    CP:  7.26D-01  1.20D+00  1.21D+00  1.32D-01  8.85D-01
                    CP:  1.41D+00  1.42D+00  1.70D+00  1.80D+00  1.75D+00
                    CP:  1.33D+00  1.24D+00  1.32D+00  1.07D+00
 E= -4881.67234539289     Delta-E=       -0.000000006785 Rises=F Damp=F
 DIIS: error= 1.02D-06 at cycle  20 NSaved=  20.
 NSaved=20 IEnMin=20 EnMin= -4881.67234539289     IErMin=20 ErrMin= 1.02D-06
 ErrMax= 1.02D-06  0.00D+00 EMaxC= 1.00D-01 BMatC= 2.50D-09 BMatP= 5.15D-08
 IDIUse=1 WtCom= 1.00D+00 WtEn= 0.00D+00
 Coeff-Com:  0.946D-05-0.117D-04 0.284D-05 0.216D-06 0.461D-05 0.643D-05
 Coeff-Com: -0.168D-03-0.173D-03-0.973D-05 0.418D-03 0.664D-03 0.116D-02
 Coeff-Com:  0.123D-02 0.879D-03-0.102D-02-0.275D-01-0.909D-01 0.117D-01
 Coeff-Com:  0.392D+00 0.711D+00
 Coeff:      0.946D-05-0.117D-04 0.284D-05 0.216D-06 0.461D-05 0.643D-05
 Coeff:     -0.168D-03-0.173D-03-0.973D-05 0.418D-03 0.664D-03 0.116D-02
 Coeff:      0.123D-02 0.879D-03-0.102D-02-0.275D-01-0.909D-01 0.117D-01
 Coeff:      0.392D+00 0.711D+00
 Gap=     0.141 Goal=   None    Shift=    0.000
 Gap=     0.113 Goal=   None    Shift=    0.000
 RMSDP=5.96D-08 MaxDP=1.06D-05 DE=-6.78D-09 OVMax= 2.19D-05

 Cycle  21  Pass 1  IDiag  1:
 Restarting incremental Fock formation.
 E= -4881.67234539386     Delta-E=       -0.000000000962 Rises=F Damp=F
 DIIS: error= 5.79D-07 at cycle  21 NSaved=  20.
 NSaved=20 IEnMin=20 EnMin= -4881.67234539386     IErMin=20 ErrMin= 5.79D-07
 ErrMax= 5.79D-07  0.00D+00 EMaxC= 1.00D-01 BMatC= 7.42D-10 BMatP= 2.50D-09
 IDIUse=1 WtCom= 1.00D+00 WtEn= 0.00D+00
 Coeff-Com:  0.237D-05-0.292D-05-0.255D-06 0.397D-05-0.434D-05-0.601D-04
 Coeff-Com:  0.638D-04-0.543D-05 0.162D-03 0.451D-03 0.458D-03-0.596D-03
 Coeff-Com: -0.199D-02 0.696D-03 0.267D-02-0.179D-01-0.488D-01-0.638D-02
 Coeff-Com:  0.297D+00 0.774D+00
 Coeff:      0.237D-05-0.292D-05-0.255D-06 0.397D-05-0.434D-05-0.601D-04
 Coeff:      0.638D-04-0.543D-05 0.162D-03 0.451D-03 0.458D-03-0.596D-03
 Coeff:     -0.199D-02 0.696D-03 0.267D-02-0.179D-01-0.488D-01-0.638D-02
 Coeff:      0.297D+00 0.774D+00
 Gap=     0.141 Goal=   None    Shift=    0.000
 Gap=     0.113 Goal=   None    Shift=    0.000
 RMSDP=2.74D-08 MaxDP=4.75D-06 DE=-9.62D-10 OVMax= 1.15D-05

 Cycle  22  Pass 1  IDiag  1:
 RMSU=  2.74D-08    CP:  1.00D+00
 E= -4881.67234539408     Delta-E=       -0.000000000220 Rises=F Damp=F
 DIIS: error= 2.57D-07 at cycle  22 NSaved=  20.
 NSaved=20 IEnMin=20 EnMin= -4881.67234539408     IErMin=20 ErrMin= 2.57D-07
 ErrMax= 2.57D-07  0.00D+00 EMaxC= 1.00D-01 BMatC= 1.28D-10 BMatP= 7.42D-10
 IDIUse=1 WtCom= 1.00D+00 WtEn= 0.00D+00
 Coeff-Com:  0.199D-06-0.510D-06 0.879D-06-0.494D-05 0.145D-05 0.688D-04
 Coeff-Com:  0.437D-06-0.101D-04 0.106D-03 0.394D-05-0.536D-03-0.122D-02
 Coeff-Com:  0.100D-03 0.722D-02 0.924D-02-0.256D-01-0.901D-01 0.114D-01
 Coeff-Com:  0.403D+00 0.686D+00
 Coeff:      0.199D-06-0.510D-06 0.879D-06-0.494D-05 0.145D-05 0.688D-04
 Coeff:      0.437D-06-0.101D-04 0.106D-03 0.394D-05-0.536D-03-0.122D-02
 Coeff:      0.100D-03 0.722D-02 0.924D-02-0.256D-01-0.901D-01 0.114D-01
 Coeff:      0.403D+00 0.686D+00
 Gap=     0.141 Goal=   None    Shift=    0.000
 Gap=     0.113 Goal=   None    Shift=    0.000
 RMSDP=1.35D-08 MaxDP=2.28D-06 DE=-2.20D-10 OVMax= 4.93D-06

 Cycle  23  Pass 1  IDiag  1:
 RMSU=  1.14D-08    CP:  1.00D+00  1.27D+00
 E= -4881.67234539410     Delta-E=       -0.000000000020 Rises=F Damp=F
 DIIS: error= 1.24D-07 at cycle  23 NSaved=  20.
 NSaved=20 IEnMin=20 EnMin= -4881.67234539410     IErMin=20 ErrMin= 1.24D-07
 ErrMax= 1.24D-07  0.00D+00 EMaxC= 1.00D-01 BMatC= 2.76D-11 BMatP= 1.28D-10
 IDIUse=1 WtCom= 1.00D+00 WtEn= 0.00D+00
 Coeff-Com: -0.413D-07-0.404D-06-0.150D-05 0.156D-04 0.575D-05 0.191D-05
 Coeff-Com: -0.520D-04-0.764D-04-0.101D-03 0.789D-05 0.171D-03-0.332D-03
 Coeff-Com:  0.166D-02 0.594D-02 0.219D-02-0.333D-01-0.645D-01-0.369D-01
 Coeff-Com:  0.320D+00 0.805D+00
 Coeff:     -0.413D-07-0.404D-06-0.150D-05 0.156D-04 0.575D-05 0.191D-05
 Coeff:     -0.520D-04-0.764D-04-0.101D-03 0.789D-05 0.171D-03-0.332D-03
 Coeff:      0.166D-02 0.594D-02 0.219D-02-0.333D-01-0.645D-01-0.369D-01
 Coeff:      0.320D+00 0.805D+00
 Gap=     0.141 Goal=   None    Shift=    0.000
 Gap=     0.113 Goal=   None    Shift=    0.000
 RMSDP=7.28D-09 MaxDP=1.19D-06 DE=-2.00D-11 OVMax= 1.64D-06

 Cycle  24  Pass 1  IDiag  1:
 RMSU=  5.34D-09    CP:  1.00D+00  1.43D+00  1.16D+00
 E= -4881.67234539413     Delta-E=       -0.000000000038 Rises=F Damp=F
 DIIS: error= 4.49D-08 at cycle  24 NSaved=  20.
 NSaved=20 IEnMin=20 EnMin= -4881.67234539413     IErMin=20 ErrMin= 4.49D-08
 ErrMax= 4.49D-08  0.00D+00 EMaxC= 1.00D-01 BMatC= 9.48D-12 BMatP= 2.76D-11
 IDIUse=1 WtCom= 1.00D+00 WtEn= 0.00D+00
 Coeff-Com: -0.416D-06 0.699D-06 0.337D-05-0.632D-05 0.763D-06-0.635D-05
 Coeff-Com: -0.318D-04-0.212D-04 0.742D-04 0.208D-03-0.228D-03-0.465D-03
 Coeff-Com:  0.373D-03 0.443D-02 0.287D-02-0.170D-01-0.653D-01 0.239D-02
 Coeff-Com:  0.187D+00 0.885D+00
 Coeff:     -0.416D-06 0.699D-06 0.337D-05-0.632D-05 0.763D-06-0.635D-05
 Coeff:     -0.318D-04-0.212D-04 0.742D-04 0.208D-03-0.228D-03-0.465D-03
 Coeff:      0.373D-03 0.443D-02 0.287D-02-0.170D-01-0.653D-01 0.239D-02
 Coeff:      0.187D+00 0.885D+00
 Gap=     0.141 Goal=   None    Shift=    0.000
 Gap=     0.113 Goal=   None    Shift=    0.000
 RMSDP=3.54D-09 MaxDP=4.55D-07 DE=-3.82D-11 OVMax= 1.96D-06

 Error on total polarization charges =  0.02627
 SCF Done:  E(UMN15) =  -4881.67234539     A.U. after   24 cycles
            NFock= 24  Conv=0.35D-08     -V/T= 2.0994
 <Sx>= 0.0000 <Sy>= 0.0000 <Sz>= 0.5000 <S**2>= 0.7575 S= 0.5037
 <L.S>=  0.00000000000    
 KE= 4.440505217447D+03 PE=-2.875778575677D+04 EE= 1.088315173970D+04
 SMD-CDS (non-electrostatic) energy       (kcal/mol) =       2.69
 (included in total energy above)
 Annihilation of the first spin contaminant:
 S**2 before annihilation     0.7575,   after     0.7500
 Leave Link  502 at Fri Feb 21 18:33:29 2025, MaxMem= 82678120448 cpu:           16864.1 elap:             706.4
 (Enter /sysapps/ubuntu-applications/gaussian-new/avx/g16/l801.exe)
 DoSCS=F DFT=T ScalE2(SS,OS)=  1.000000  1.000000
 Range of M.O.s used for correlation:     1   742
 NBasis=   742 NAE=   193 NBE=   192 NFC=     0 NFV=     0
 NROrb=    742 NOA=   193 NOB=   192 NVA=   549 NVB=   550

 **** Warning!!: The largest alpha MO coefficient is  0.12748744D+02


 **** Warning!!: The largest beta MO coefficient is  0.12748742D+02

 Leave Link  801 at Fri Feb 21 18:33:29 2025, MaxMem= 82678120448 cpu:               1.8 elap:               0.1
 (Enter /sysapps/ubuntu-applications/gaussian-new/avx/g16/l1101.exe)
 Using compressed storage, NAtomX=    54.
 Will process     55 centers per pass.
   1 Symmetry operations used in ECPInt.
 ECPInt:  NShTT=   50086 NPrTT=  191923 LenC2=   38574 LenP2D=   89732.
 LDataN:  DoStor=T MaxTD1=10 Len=  848
 Leave Link 1101 at Fri Feb 21 18:33:36 2025, MaxMem= 82678120448 cpu:             175.3 elap:               7.3
 (Enter /sysapps/ubuntu-applications/gaussian-new/avx/g16/l1102.exe)
 Symmetrizing basis deriv contribution to polar:
 IMax=3 JMax=2 DiffMx= 0.00D+00
 Leave Link 1102 at Fri Feb 21 18:33:37 2025, MaxMem= 82678120448 cpu:               4.5 elap:               0.3
 (Enter /sysapps/ubuntu-applications/gaussian-new/avx/g16/l1110.exe)
 Forming Gx(P) for the SCF density, NAtomX=    54.
 Integral derivatives from FoFJK, PRISM(SPDF).
 Do as many integral derivatives as possible in FoFJK.
 G2DrvN: MDV=   82678116316.
 G2DrvN: will do    55 centers at a time, making    1 passes.
 Calling FoFCou, ICntrl=  3107 FMM=F I1Cent=   0 AccDes= 0.00D+00.
 FoFJK:  IHMeth= 1 ICntrl=    3107 DoSepK=F KAlg= 0 I1Cent=           0 FoldK=F
 IRaf=         0 NMat=       1 IRICut=       1 DoRegI=T DoRafI=F ISym2E= 0 IDoP0=0 IntGTp=1.
 FoFCou: FMM=F IPFlag=           0 FMFlag=      100000 FMFlg1=           0
         NFxFlg=           0 DoJE=F BraDBF=F KetDBF=F FulRan=T
         wScrn=  0.000000 ICntrl=      3107 IOpCl=  1 I1Cent=           0 NGrid=           0
         NMat0=    1 NMatS0=      1 NMatT0=    0 NMatD0=    1 NMtDS0=    0 NMtDT0=    0
 Symmetry not used in FoFCou.
 Defaulting to unpruned grid for atomic number  70.
 Defaulting to unpruned grid for atomic number  70.
 Defaulting to unpruned grid for atomic number  70.
 Defaulting to unpruned grid for atomic number  70.
 Defaulting to unpruned grid for atomic number  70.
 Defaulting to unpruned grid for atomic number  70.
 Defaulting to unpruned grid for atomic number  70.
 Defaulting to unpruned grid for atomic number  70.
 Defaulting to unpruned grid for atomic number  70.
 Defaulting to unpruned grid for atomic number  70.
 Defaulting to unpruned grid for atomic number  70.
 Defaulting to unpruned grid for atomic number  70.
 Defaulting to unpruned grid for atomic number  70.
 Defaulting to unpruned grid for atomic number  70.
 Defaulting to unpruned grid for atomic number  70.
 Defaulting to unpruned grid for atomic number  70.
 Defaulting to unpruned grid for atomic number  70.
 Defaulting to unpruned grid for atomic number  70.
 Defaulting to unpruned grid for atomic number  70.
 Defaulting to unpruned grid for atomic number  70.
 Defaulting to unpruned grid for atomic number  70.
 Defaulting to unpruned grid for atomic number  70.
 Defaulting to unpruned grid for atomic number  70.
 Defaulting to unpruned grid for atomic number  70.
 NEqPCM:  Using equilibrium solvation (IEInf=0, Eps=  10.1250, EpsInf=   2.0874)
 G2PCM: DoFxE=T DoFxN=T DoGrad=T DoDP/DQ/DG/TGxP=FFFF NFrqRd=   0 IEInf=0 SqF1=F DoCFld=F IF1Alg=4.
 GePol: Maximum number of non-zero 1st derivatives   =     219
 End of G2Drv F.D. properties file   721 does not exist.
 End of G2Drv F.D. properties file   722 does not exist.
 End of G2Drv F.D. properties file   788 does not exist.
 Leave Link 1110 at Fri Feb 21 18:53:51 2025, MaxMem= 82678120448 cpu:           29118.3 elap:            1213.7
 (Enter /sysapps/ubuntu-applications/gaussian-new/avx/g16/l1002.exe)
 Minotr:  UHF open shell wavefunction.
          IDoAtm=11111111111111111111111111111111111111111111111111
          IDoAtm=1111
 NEqPCM:  Using equilibrium solvation (IEInf=0, Eps=  10.1250, EpsInf=   2.0874)
          Direct CPHF calculation.
          Differentiating once with respect to electric field.
                with respect to dipole field.
          Differentiating once with respect to nuclear coordinates.
          Requested convergence is 1.0D-08 RMS, and 1.0D-07 maximum.
          Secondary convergence is 1.0D-12 RMS, and 1.0D-12 maximum.
          NewPWx=T KeepS1=F KeepF1=F KeepIn=T MapXYZ=F SortEE=F KeepMc=T.
 Defaulting to unpruned grid for atomic number  70.
        16772 words used for storage of precomputed grid.
 Two-electron integrals replicated using symmetry.
          MDV=   82678120448 using IRadAn=       1.
          Solving linear equations simultaneously, MaxMat=     384.
 FoF2E skips out because all densities are zero.
 CalDSu exits because no D1Ps are significant.
 FoFJK:  IHMeth= 1 ICntrl=       0 DoSepK=F KAlg= 0 I1Cent=           0 FoldK=F
 IRaf= 640000000 NMat=     162 IRICut=     405 DoRegI=T DoRafI=T ISym2E= 2 IDoP0=3 IntGTp=3.
 Defaulting to unpruned grid for atomic number  70.
 Defaulting to unpruned grid for atomic number  70.
 Defaulting to unpruned grid for atomic number  70.
 Defaulting to unpruned grid for atomic number  70.
 Defaulting to unpruned grid for atomic number  70.
 Defaulting to unpruned grid for atomic number  70.
 Defaulting to unpruned grid for atomic number  70.
 Defaulting to unpruned grid for atomic number  70.
 Defaulting to unpruned grid for atomic number  70.
 Defaulting to unpruned grid for atomic number  70.
 Defaulting to unpruned grid for atomic number  70.
 Defaulting to unpruned grid for atomic number  70.
 Defaulting to unpruned grid for atomic number  70.
 Defaulting to unpruned grid for atomic number  70.
 Defaulting to unpruned grid for atomic number  70.
 Defaulting to unpruned grid for atomic number  70.
 Defaulting to unpruned grid for atomic number  70.
 Defaulting to unpruned grid for atomic number  70.
 Defaulting to unpruned grid for atomic number  70.
 Defaulting to unpruned grid for atomic number  70.
 Defaulting to unpruned grid for atomic number  70.
 Defaulting to unpruned grid for atomic number  70.
 Defaulting to unpruned grid for atomic number  70.
 Defaulting to unpruned grid for atomic number  70.
          There are   165 degrees of freedom in the 1st order CPHF.  IDoFFX=6 NUNeed=     3.
    162 vectors produced by pass  0 Test12= 2.12D-13 1.00D-09 XBig12= 6.10D+02 1.09D+01.
 AX will form   162 AO Fock derivatives at one time.
    162 vectors produced by pass  1 Test12= 2.12D-13 1.00D-09 XBig12= 1.15D+02 2.39D+00.
    162 vectors produced by pass  2 Test12= 2.12D-13 1.00D-09 XBig12= 4.69D+00 3.41D-01.
    162 vectors produced by pass  3 Test12= 2.12D-13 1.00D-09 XBig12= 1.37D-01 4.58D-02.
    162 vectors produced by pass  4 Test12= 2.12D-13 1.00D-09 XBig12= 2.31D-03 5.89D-03.
    162 vectors produced by pass  5 Test12= 2.12D-13 1.00D-09 XBig12= 2.45D-05 3.47D-04.
    161 vectors produced by pass  6 Test12= 2.12D-13 1.00D-09 XBig12= 2.33D-07 3.43D-05.
    106 vectors produced by pass  7 Test12= 2.12D-13 1.00D-09 XBig12= 2.07D-09 3.76D-06.
     33 vectors produced by pass  8 Test12= 2.12D-13 1.00D-09 XBig12= 1.98D-11 3.53D-07.
      3 vectors produced by pass  9 Test12= 2.12D-13 1.00D-09 XBig12= 2.51D-13 4.05D-08.
      3 vectors produced by pass 10 Test12= 2.12D-13 1.00D-09 XBig12= 6.41D-15 7.00D-09.
      2 vectors produced by pass 11 Test12= 2.12D-13 1.00D-09 XBig12= 2.11D-15 1.91D-09.
 InvSVY:  IOpt=1 It=  1 EMax= 1.42D-14
 Solved reduced A of dimension  1280 with   165 vectors.
 FullF1:  Do perturbations      1 to       3.
 Isotropic polarizability for W=    0.000000      364.50 Bohr**3.
 End of Minotr F.D. properties file   721 does not exist.
 End of Minotr F.D. properties file   722 does not exist.
 End of Minotr F.D. properties file   788 does not exist.
 Leave Link 1002 at Fri Feb 21 19:50:47 2025, MaxMem= 82678120448 cpu:           81916.8 elap:            3415.8
 (Enter /sysapps/ubuntu-applications/gaussian-new/avx/g16/l601.exe)
 Copying SCF densities to generalized density rwf, IOpCl= 1 IROHF=0.

 **********************************************************************

            Population analysis using the SCF density.

 **********************************************************************

 Orbital symmetries:
 Alpha Orbitals:
       Occupied  (A) (A) (A) (A) (A) (A) (A) (A) (A) (A) (A) (A)
                 (A) (A) (A) (A) (A) (A) (A) (A) (A) (A) (A) (A)
                 (A) (A) (A) (A) (A) (A) (A) (A) (A) (A) (A) (A)
                 (A) (A) (A) (A) (A) (A) (A) (A) (A) (A) (A) (A)
                 (A) (A) (A) (A) (A) (A) (A) (A) (A) (A) (A) (A)
                 (A) (A) (A) (A) (A) (A) (A) (A) (A) (A) (A) (A)
                 (A) (A) (A) (A) (A) (A) (A) (A) (A) (A) (A) (A)
                 (A) (A) (A) (A) (A) (A) (A) (A) (A) (A) (A) (A)
                 (A) (A) (A) (A) (A) (A) (A) (A) (A) (A) (A) (A)
                 (A) (A) (A) (A) (A) (A) (A) (A) (A) (A) (A) (A)
                 (A) (A) (A) (A) (A) (A) (A) (A) (A) (A) (A) (A)
                 (A) (A) (A) (A) (A) (A) (A) (A) (A) (A) (A) (A)
                 (A) (A) (A) (A) (A) (A) (A) (A) (A) (A) (A) (A)
                 (A) (A) (A) (A) (A) (A) (A) (A) (A) (A) (A) (A)
                 (A) (A) (A) (A) (A) (A) (A) (A) (A) (A) (A) (A)
                 (A) (A) (A) (A) (A) (A) (A) (A) (A) (A) (A) (A)
                 (A)
       Virtual   (A) (A) (A) (A) (A) (A) (A) (A) (A) (A) (A) (A)
                 (A) (A) (A) (A) (A) (A) (A) (A) (A) (A) (A) (A)
                 (A) (A) (A) (A) (A) (A) (A) (A) (A) (A) (A) (A)
                 (A) (A) (A) (A) (A) (A) (A) (A) (A) (A) (A) (A)
                 (A) (A) (A) (A) (A) (A) (A) (A) (A) (A) (A) (A)
                 (A) (A) (A) (A) (A) (A) (A) (A) (A) (A) (A) (A)
                 (A) (A) (A) (A) (A) (A) (A) (A) (A) (A) (A) (A)
                 (A) (A) (A) (A) (A) (A) (A) (A) (A) (A) (A) (A)
                 (A) (A) (A) (A) (A) (A) (A) (A) (A) (A) (A) (A)
                 (A) (A) (A) (A) (A) (A) (A) (A) (A) (A) (A) (A)
                 (A) (A) (A) (A) (A) (A) (A) (A) (A) (A) (A) (A)
                 (A) (A) (A) (A) (A) (A) (A) (A) (A) (A) (A) (A)
                 (A) (A) (A) (A) (A) (A) (A) (A) (A) (A) (A) (A)
                 (A) (A) (A) (A) (A) (A) (A) (A) (A) (A) (A) (A)
                 (A) (A) (A) (A) (A) (A) (A) (A) (A) (A) (A) (A)
                 (A) (A) (A) (A) (A) (A) (A) (A) (A) (A) (A) (A)
                 (A) (A) (A) (A) (A) (A) (A) (A) (A) (A) (A) (A)
                 (A) (A) (A) (A) (A) (A) (A) (A) (A) (A) (A) (A)
                 (A) (A) (A) (A) (A) (A) (A) (A) (A) (A) (A) (A)
                 (A) (A) (A) (A) (A) (A) (A) (A) (A) (A) (A) (A)
                 (A) (A) (A) (A) (A) (A) (A) (A) (A) (A) (A) (A)
                 (A) (A) (A) (A) (A) (A) (A) (A) (A) (A) (A) (A)
                 (A) (A) (A) (A) (A) (A) (A) (A) (A) (A) (A) (A)
                 (A) (A) (A) (A) (A) (A) (A) (A) (A) (A) (A) (A)
                 (A) (A) (A) (A) (A) (A) (A) (A) (A) (A) (A) (A)
                 (A) (A) (A) (A) (A) (A) (A) (A) (A) (A) (A) (A)
                 (A) (A) (A) (A) (A) (A) (A) (A) (A) (A) (A) (A)
                 (A) (A) (A) (A) (A) (A) (A) (A) (A) (A) (A) (A)
                 (A) (A) (A) (A) (A) (A) (A) (A) (A) (A) (A) (A)
                 (A) (A) (A) (A) (A) (A) (A) (A) (A) (A) (A) (A)
                 (A) (A) (A) (A) (A) (A) (A) (A) (A) (A) (A) (A)
                 (A) (A) (A) (A) (A) (A) (A) (A) (A) (A) (A) (A)
                 (A) (A) (A) (A) (A) (A) (A) (A) (A) (A) (A) (A)
                 (A) (A) (A) (A) (A) (A) (A) (A) (A) (A) (A) (A)
                 (A) (A) (A) (A) (A) (A) (A) (A) (A) (A) (A) (A)
                 (A) (A) (A) (A) (A) (A) (A) (A) (A) (A) (A) (A)
                 (A) (A) (A) (A) (A) (A) (A) (A) (A) (A) (A) (A)
                 (A) (A) (A) (A) (A) (A) (A) (A) (A) (A) (A) (A)
                 (A) (A) (A) (A) (A) (A) (A) (A) (A) (A) (A) (A)
                 (A) (A) (A) (A) (A) (A) (A) (A) (A) (A) (A) (A)
                 (A) (A) (A) (A) (A) (A) (A) (A) (A) (A) (A) (A)
                 (A) (A) (A) (A) (A) (A) (A) (A) (A) (A) (A) (A)
                 (A) (A) (A) (A) (A) (A) (A) (A) (A) (A) (A) (A)
                 (A) (A) (A) (A) (A) (A) (A) (A) (A) (A) (A) (A)
                 (A) (A) (A) (A) (A) (A) (A) (A) (A) (A) (A) (A)
                 (A) (A) (A) (A) (A) (A) (A) (A) (A)
 Beta  Orbitals:
       Occupied  (A) (A) (A) (A) (A) (A) (A) (A) (A) (A) (A) (A)
                 (A) (A) (A) (A) (A) (A) (A) (A) (A) (A) (A) (A)
                 (A) (A) (A) (A) (A) (A) (A) (A) (A) (A) (A) (A)
                 (A) (A) (A) (A) (A) (A) (A) (A) (A) (A) (A) (A)
                 (A) (A) (A) (A) (A) (A) (A) (A) (A) (A) (A) (A)
                 (A) (A) (A) (A) (A) (A) (A) (A) (A) (A) (A) (A)
                 (A) (A) (A) (A) (A) (A) (A) (A) (A) (A) (A) (A)
                 (A) (A) (A) (A) (A) (A) (A) (A) (A) (A) (A) (A)
                 (A) (A) (A) (A) (A) (A) (A) (A) (A) (A) (A) (A)
                 (A) (A) (A) (A) (A) (A) (A) (A) (A) (A) (A) (A)
                 (A) (A) (A) (A) (A) (A) (A) (A) (A) (A) (A) (A)
                 (A) (A) (A) (A) (A) (A) (A) (A) (A) (A) (A) (A)
                 (A) (A) (A) (A) (A) (A) (A) (A) (A) (A) (A) (A)
                 (A) (A) (A) (A) (A) (A) (A) (A) (A) (A) (A) (A)
                 (A) (A) (A) (A) (A) (A) (A) (A) (A) (A) (A) (A)
                 (A) (A) (A) (A) (A) (A) (A) (A) (A) (A) (A) (A)
       Virtual   (A) (A) (A) (A) (A) (A) (A) (A) (A) (A) (A) (A)
                 (A) (A) (A) (A) (A) (A) (A) (A) (A) (A) (A) (A)
[...]
 1,-0.00000305,0.00000156,-0.00002335,-0.00000567,-0.00002358,0.0000021
 6,0.00000214,-0.00000277,0.00006898,-0.00005209,0.00006863,-0.00554399
 ,-0.00264767,-0.00034703,0.00005730,-0.00001059,0.00010246,0.00009700,
 -0.00015855,0.00007346,-0.00011636,0.00015277,-0.00024327,-0.00678271,
 -0.00094017,0.00841701,-0.00004562,0.00017195,-0.00031195,0.00003962,0
 .00005537,0.00015118,0.00000833,-0.00004400,0.00005160,-0.00012632,-0.
 00040871,-0.00031272,0.00034766,-0.00052372,0.00009916,-0.00011515,-0.
 00019937,0.00024204,-0.00001032,-0.00004660,0.00007190,-0.00011049,-0.
 00014145,-0.00010050,0.06157686,0.01305169,-0.09261533,0.00000393,0.00
 006141,-0.00004153,0.00002092,0.00001936,0.00002317,0.00007771,0.00008
 682,0.00004964,0.00001303,0.00001735,0.00004876,0.04310148,0.03513735,
 -0.02572162,0.04463173,-0.01355881,-0.01178421,-0.13706087,-0.03094520
 ,0.12266611,-0.00033495,0.00005709,-0.00001943,0.00008261,-0.00005762,
 0.00009863,-0.00007253,-0.00000790,0.00005282,0.00000893,-0.00000508,0
 .00000720,-0.00008704,0.00004644,-0.00005789,0.00012698,0.00002560,-0.
 00010875,0.00053481,-0.00003041,-0.00021491,0.00009694,0.00010499,-0.0
 0008552,-0.00045947,0.00017162,0.00022413,0.00220632,-0.00015762,0.000
 52911,-0.00026090,-0.00044596,0.00027765,0.00000587,-0.00000772,0.0000
 0559,-0.00000499,0.00000099,-0.00000342,-0.00000078,-0.00000188,-0.000
 00024,-0.00000180,-0.00000258,0.00000223,0.00000782,-0.00000068,-0.000
 00214,0.00008688,-0.00004387,0.00003403,0.00026486,0.00013846,-0.00012
 833,-0.00407183,0.00111764,-0.00158149,-0.00227504,-0.00243377,0.00114
 137,-0.00086389,-0.00039903,-0.00012956,0.00002749,0.00027735,-0.00011
 781,0.00010979,0.00011361,0.00004605,-0.00005066,-0.00008915,0.0000424
 2,-0.00007264,0.00001563,-0.00003617,0.00032375,-0.00002682,-0.0000938
 3,0.00017703,0.00008307,0.00021407,0.00000474,0.00001233,-0.00000458,0
 .00000496,0.00001349,-0.00000810,-0.00000264,0.00001176,-0.00000771,0.
 00025327,0.00010756,-0.00012324,-0.00252833,0.00237402,0.00141358,0.00
 913998,-0.00489107,0.00216067,-0.02777332,0.01830147,0.00973004,-0.000
 49071,0.00024860,0.00022809,0.00193973,-0.00138482,0.00028330,0.005060
 95,-0.00520342,-0.00490254,-0.00776998,-0.00906980,0.00463149,0.000316
 87,-0.00034695,-0.00013902,0.00009212,-0.00009158,-0.00001983,-0.00020
 476,0.00055243,-0.00026451,-0.00044173,0.00024735,0.00008300,-0.000109
 35,-0.00039672,-0.00067602,-0.00005620,0.00007885,0.00004246,-0.277052
 09,-0.01960337,0.09121515,-0.00027740,0.00027678,0.00021593,0.00010696
 ,0.00021105,0.00015847,-0.00000419,0.00002804,0.00020985,0.00001504,-0
 .00005640,-0.00001590,0.00001923,-0.00006609,-0.00005109,0.00005722,-0
 .00000679,-0.00001357,0.39097877,0.00016059,-0.00002581,0.00000424,-0.
 00004418,0.00002816,-0.00004596,0.00004088,0.00000524,-0.00002834,-0.0
 0000266,-0.00000202,0.00000387,0.00003276,-0.00001510,0.00002290,-0.00
 005199,-0.00001328,0.00005409,-0.00025620,-0.00002101,0.00012103,-0.00
 013185,0.00000271,-0.00001560,0.00024952,-0.00001032,-0.00013690,-0.00
 083928,-0.00016797,-0.00016582,-0.00040633,0.00021377,-0.00006806,-0.0
 0000364,0.00000140,-0.00000311,0.00000159,-0.00000137,0.00000102,0.000
 00006,0.,0.00000007,0.00000219,-0.00000095,-0.00000153,-0.00000380,-0.
 00000245,0.00000048,-0.00003592,0.00001347,-0.00001287,0.00042171,-0.0
 0013709,0.00016451,0.00113466,-0.00164588,-0.00071140,-0.00201984,0.00
 283141,0.00028277,0.00037771,0.00037991,0.00000429,0.00015510,-0.00025
 398,0.00008552,0.00001903,-0.00019471,-0.00000510,0.00002475,0.0000726
 1,-0.00004201,0.00000951,0.00001474,0.00000774,0.00000745,-0.00001734,
 0.00001300,0.00004412,0.00000819,0.00003620,0.00000467,-0.00000717,0.0
 0000630,-0.00001139,-0.00000710,0.00000034,-0.00001939,0.00000421,0.00
 000337,0.00002926,-0.00026995,-0.00005438,0.00102695,-0.00093187,0.000
 02614,0.00216779,-0.00266172,0.00122670,-0.01997578,0.00939604,0.00700
 565,-0.00015668,0.00081826,0.00002386,-0.00092966,0.00004731,0.0001280
 6,0.00048996,-0.00284062,-0.00053923,-0.00805931,-0.00584716,0.0041873
 7,0.00009533,-0.00069691,-0.00005153,0.00003409,-0.00026330,0.00008257
 ,0.00031751,-0.00006715,-0.00011361,0.00027032,0.00009541,-0.00003216,
 -0.00001662,0.00011192,0.00031460,0.00013005,0.00017471,0.00013338,-0.
 01816942,-0.07831992,0.00881336,0.00011744,-0.00010043,-0.00009101,-0.
 00000899,-0.00005093,-0.00006024,0.00001247,0.00002053,-0.00013566,-0.
 00003006,-0.00008334,-0.00003635,-0.00000632,-0.00012491,-0.00010252,-
 0.00007857,-0.00004568,-0.00001840,-0.02047597,0.07202533,0.00002890,-
 0.00000946,0.00001243,-0.00000082,0.00000501,-0.00001047,-0.00000014,0
 .00000023,0.00000120,-0.00000146,0.00000431,-0.00000942,0.00001760,-0.
 00000868,0.00001126,-0.00002071,0.00000057,0.00000731,-0.00003507,0.00
 001573,-0.00002048,0.00000932,-0.00003061,-0.00003300,0.00000954,-0.00
 002609,0.00001401,-0.00013161,0.00008819,-0.00010463,0.00017010,0.0000
 2786,-0.00006913,0.00000008,-0.00000032,-0.00000141,0.00000154,-0.0000
 0064,0.00000011,0.00000022,0.00000011,-0.00000028,-0.00000129,0.000000
 67,-0.00000053,-0.00000193,-0.00000050,-0.00000055,-0.00003718,0.00001
 669,-0.00003205,-0.00017809,0.00002083,0.00002645,-0.00087652,-0.00081
 895,0.00057009,0.00112731,0.00137012,-0.00125220,0.00002861,-0.0000563
 5,0.00005858,-0.00005280,0.00001211,0.00000623,0.00002651,0.00002575,-
 0.00008845,0.00000654,-0.00000023,-0.00000557,0.00001083,-0.00000541,0
 .00001611,-0.00011751,-0.00000237,0.00003839,0.00000384,-0.00000183,-0
 .00002416,-0.00000314,-0.00000099,-0.00000113,0.00000160,-0.00000091,0
 .00000326,0.00000578,-0.00000492,-0.00000017,-0.00010544,0.00002805,0.
 00007250,0.00118867,-0.00175879,0.00019994,-0.00168368,0.00178145,0.00
 012345,0.01675069,-0.00897281,-0.00401197,0.00020801,-0.00028109,-0.00
 015021,-0.00120303,0.00068269,-0.00054569,-0.00334995,0.00386871,0.004
 68304,0.00476462,0.00484434,-0.00220729,-0.00014242,0.00028344,0.00006
 797,-0.00003798,0.00008892,0.00001182,0.00011648,-0.00030921,0.0003480
 8,0.00027191,-0.00006885,0.00007145,0.00006530,0.00019096,0.00028983,-
 0.00001651,-0.00004982,-0.00008478,0.09058057,0.00955678,-0.10982998,0
 .00016119,-0.00015281,-0.00010781,-0.00003956,-0.00008876,-0.00005716,
 0.00000505,-0.00002760,-0.00006202,0.00000640,0.00002403,0.00004280,-0
 .00000294,0.00004936,0.00004981,-0.00000529,0.00000948,0.00001890,-0.1
 2801008,0.01097935,0.13448054,-0.00018170,0.00003013,-0.00000376,0.000
 05000,-0.00003132,0.00005143,-0.00004513,-0.00000466,0.00003360,0.0000
 0508,0.00000028,-0.00000293,-0.00004031,0.00002208,-0.00002731,0.00006
 265,0.00001536,-0.00005965,0.00028989,-0.00000239,-0.00013757,0.000104
 51,0.00002678,-0.00003972,-0.00025736,0.00004471,0.00014845,0.00091942
 ,-0.00008221,0.00019005,0.00019786,-0.00024513,0.00009916,0.00000401,-
 0.00000502,0.00000227,-0.00000164,0.00000008,-0.00000218,-0.00000038,-
 0.00000111,-0.00000039,-0.00000184,-0.00000118,0.00000104,0.00000361,-
 0.00000027,-0.00000148,0.00003249,-0.00001716,0.00000525,-0.00019659,0
 .00012621,-0.00009462,-0.00101172,0.00052842,-0.00020412,0.00040936,-0
 .00175744,-0.00023696,-0.00038738,-0.00018933,-0.00003848,-0.00009011,
 0.00023141,-0.00008282,0.00002491,0.00006308,-0.00001078,-0.00002897,-
 0.00007339,0.00003239,-0.00002931,0.00000436,-0.00000980,0.00006043,-0
 .00001332,-0.00003869,0.00005153,0.00002111,0.00006391,-0.00000223,0.0
 0000754,-0.00000524,0.00000852,0.00000733,-0.00000122,0.00001067,-0.00
 000083,-0.00000478,0.00005271,0.00018223,0.00002714,-0.00038806,0.0004
 5539,0.00002029,0.00034381,0.00255680,-0.00094800,-0.00535648,-0.00279
 326,-0.00517337,-0.00002906,-0.00042285,-0.00001878,0.00063163,-0.0002
 9752,-0.00013591,0.00096381,0.00106718,0.00226416,0.00503717,0.0007868
 8,-0.00078661,0.00003825,0.00037744,0.00005072,0.00000906,0.00013043,-
 0.00003046,-0.00017013,0.00012275,0.00007909,-0.00015983,0.00004670,0.
 00007199,-0.00002212,-0.00014280,-0.00027577,-0.00013151,-0.00003968,-
 0.00011058,-0.15293605,0.06759049,-0.10106177,-0.00008902,0.00008985,0
 .00007913,0.00003916,0.00007886,0.00006824,-0.00000252,-0.00000136,0.0
 0011013,0.00003453,0.00000655,0.00004980,0.00001972,0.00005072,0.00005
 781,0.00007367,0.00001883,0.00001659,-0.07463296,0.03099355,-0.0272437
 8,0.22800628,0.00022277,-0.00003454,0.00000007,-0.00006432,0.00003897,
 -0.00006231,0.00005895,0.00000714,-0.00004253,-0.00000431,-0.00000370,
 0.00000829,0.00004295,-0.00002118,0.00002995,-0.00007005,-0.00001969,0
 .00007504,-0.00035761,-0.00002713,0.00018311,-0.00018717,0.00001200,0.
 00002154,0.00034618,0.00000073,-0.00020825,-0.00102318,-0.00009934,-0.
 00019023,-0.00070460,0.00030351,-0.00010339,-0.00000552,0.00000366,-0.
 00000357,0.00000162,-0.00000112,0.00000192,0.00000015,0.00000049,0.000
 00030,0.00000331,-0.00000062,-0.00000169,-0.00000417,-0.00000238,0.000
 00095,-0.00003461,0.00001280,-0.00000173,0.00070946,-0.00022397,0.0001
 8190,0.00105392,-0.00017151,0.00005755,-0.00289494,0.00266041,0.001738
 99,0.00047882,0.00042552,0.00000727,0.00025578,-0.00038986,0.00013941,
 -0.00000158,-0.00020136,0.00005145,0.00003910,0.00011860,-0.00006223,0
 .00001700,0.00001207,0.00000072,-0.00001867,0.00000382,0.00000718,-0.0
 0002004,-0.00000057,-0.00001592,0.00000820,-0.00001078,0.00000957,-0.0
 0001897,-0.00001045,-0.00000092,-0.00003021,0.00000728,0.00000476,0.00
 005682,-0.00040037,-0.00012302,0.00038767,-0.00011028,-0.00015870,0.00
 457463,-0.01341767,0.00754268,0.02685724,0.00612156,0.02061560,-0.0002
 9741,0.00127575,0.00013645,-0.00069602,-0.00012664,0.00039381,-0.00152
 224,-0.00325583,-0.00508343,-0.00749472,-0.00150621,-0.00006840,0.0001
 2570,-0.00123754,-0.00021437,0.00005343,-0.00041714,0.00010633,0.00035
 397,0.00002698,-0.00028742,0.00022103,0.00010962,-0.00008883,-0.000042
 20,0.00009859,0.00029261,0.00026953,0.00020596,0.00025131,0.06674850,-
 0.13699335,0.08750929,0.00008820,-0.00007441,-0.00007642,-0.00000715,-
 0.00004724,-0.00006291,0.00001191,0.00002831,-0.00014851,-0.00006472,-
 0.00008657,-0.00009257,-0.00002752,-0.00018924,-0.00017612,-0.00014034
 ,-0.00006067,-0.00003594,0.02002005,0.00759464,0.00117485,-0.09422523,
 0.11925064,-0.00018528,0.00002890,0.00000254,0.00005641,-0.00003228,0.
 00005119,-0.00005268,-0.00000535,0.00003906,0.00000420,0.00000440,-0.0
 0001141,-0.00003145,0.00001734,-0.00002225,0.00005513,0.00001766,-0.00
 006265,0.00029988,0.00001623,-0.00016442,0.00014819,-0.00000318,-0.000
 03638,-0.00028179,0.00000623,0.00017980,0.00083068,-0.00000052,0.00012
 703,0.00051160,-0.00025433,0.00006239,0.00000476,-0.00000516,0.0000017
 6,-0.00000078,-0.00000009,-0.00000218,-0.00000021,-0.00000092,-0.00000
 066,-0.00000339,-0.00000027,0.00000088,0.00000334,0.00000044,-0.000001
 95,0.00002048,-0.00000941,-0.00000749,-0.00051055,0.00017593,-0.000111
 96,-0.00083762,0.00020528,0.00000876,0.00191183,-0.00179306,-0.0012588
 3,-0.00037801,-0.00027936,0.00000733,-0.00018720,0.00030479,-0.0001020
 7,0.00001889,0.00011852,-0.00005935,-0.00002962,-0.00009464,0.00004132
 ,-0.00001857,-0.00000427,0.00000009,0.00002222,-0.00000282,-0.00001547
 ,0.00002476,0.00000435,0.00002422,-0.00000651,0.00000839,-0.00000798,0
 .00001259,0.00000837,0.00000108,0.00002196,-0.00000602,-0.00000555,-0.
 00003593,0.00028791,0.00011367,-0.00018805,0.00007878,0.00015750,-0.00
 240021,0.00918730,-0.00440233,-0.02161003,-0.00370646,-0.01129739,0.00
 020445,-0.00093376,-0.00016486,0.00037797,0.00011649,-0.00039966,0.001
 62145,0.00514098,0.00634446,0.00539996,0.00012753,0.00058874,-0.000090
 78,0.00091837,0.00017760,-0.00003375,0.00030067,-0.00004877,-0.0002328
 2,-0.00004521,0.00028584,-0.00011270,-0.00006080,0.00010492,-0.0000203
 0,-0.00005746,-0.00025223,-0.00021950,-0.00010574,-0.00024241,-0.09951
 052,0.08806664,-0.19535020,-0.00003784,0.00004127,0.00005980,0.0000265
 6,0.00004386,0.00006145,0.00000259,-0.00003357,0.00013444,0.00005760,0
 .00003550,0.00011187,0.00002682,0.00012986,0.00013944,0.00010684,0.000
 03721,0.00004001,-0.01210511,-0.00096148,0.01671844,0.16532357,-0.0932
 0392,0.25807464,-0.00004266,0.00000788,-0.00000211,0.00001106,-0.00000
 717,0.00001221,-0.00000964,-0.00000060,0.00000784,0.00000197,-0.000000
 99,0.00000056,-0.00001142,0.00000722,-0.00000745,0.00001696,0.00000346
 ,-0.00001339,0.00006716,-0.00001235,-0.00002828,0.00000874,0.00002247,
 -0.00002202,-0.00004629,0.00002862,0.00002618,0.00022917,-0.00012643,0
 .00005412,-0.00012123,-0.00006032,0.00002365,0.00000081,-0.00000234,0.
 00000016,-0.00000047,-0.00000042,-0.00000082,-0.00000021,-0.00000061,-
 0.00000016,-0.00000011,-0.00000103,0.00000006,0.00000088,-0.00000107,-
 0.00000070,0.00000840,-0.00000650,0.00000158,0.00011685,0.00000727,0.0
 0002003,-0.00021022,0.00024708,-0.00005221,-0.00088086,-0.00026477,0.0
 0018640,-0.00007763,0.00004967,-0.00002266,0.00003045,0.00001740,-0.00
 000753,0.00002576,-0.00004939,-0.00000171,-0.00000593,-0.00000821,-0.0
 0000075,-0.00001643,0.00001048,-0.00000350,0.00003097,-0.00000704,-0.0
 0002237,0.00004083,0.00001574,0.00004115,0.00000160,0.00000137,0.00000
 021,-0.00000153,0.00000155,-0.00000137,-0.00000488,0.00000316,-0.00000
 131,0.00006105,-0.00003381,-0.00002884,-0.00011283,0.00026464,-0.00003
 301,0.00155738,-0.00166294,0.00254937,0.00456675,-0.00118207,-0.007895
 72,-0.00014174,0.00023303,0.00003724,0.00014330,-0.00023313,0.00006507
 ,0.00035396,-0.00390297,-0.00128769,0.00091835,0.00082362,0.00023642,0
 .00009653,-0.00023546,-0.00000570,0.00002990,-0.00008263,0.00002126,0.
 00002882,0.00009053,-0.00005871,-0.00001809,0.00007333,0.00001884,-0.0
 0003229,-0.00005640,-0.00007432,0.00001565,0.00007082,0.00001899,-0.07
 182754,-0.01084485,-0.00814105,-0.00002535,0.00003165,0.00002431,0.000
 02358,0.00003453,0.00002158,0.00000315,0.00000872,0.00001810,-0.000001
 57,-0.00004730,0.00000032,0.00000367,-0.00004259,-0.00002876,-0.000008
 13,-0.00001328,-0.00000185,-0.01214979,0.03336282,0.04773171,-0.001292
 36,-0.01304939,-0.03797355,0.07864547,0.00019176,-0.00003046,0.0000066
 2,-0.00005020,0.00003392,-0.00005541,0.00004493,0.00000688,-0.00003049
 ,-0.00000281,-0.00000088,-0.00000032,0.00004414,-0.00001917,0.00003040
 ,-0.00006606,-0.00001478,0.00006432,-0.00030414,-0.00003065,0.00013177
 ,-0.00017967,0.00001064,-0.00002479,0.00030074,0.00000516,-0.00016054,
 -0.00092024,-0.00020193,-0.00021811,-0.00062797,0.00026617,-0.00012655
 ,-0.00000432,-0.00000009,-0.00000497,0.00000245,-0.00000253,0.00000074
 ,0.00000001,-0.00000034,-0.00000032,0.00000190,-0.00000162,-0.00000220
 ,-0.00000425,-0.00000435,-0.00000062,-0.00004956,0.00001452,-0.0000209
 0,0.00062161,-0.00015757,0.00031108,0.00086684,-0.00002694,0.00018156,
 -0.00407599,0.00276446,-0.00023446,0.00043471,0.00046039,0.00002217,0.
 00022457,-0.00033972,0.00012033,0.00003026,-0.00023878,0.00000637,0.00
 003440,0.00009605,-0.00006735,0.00000981,0.00001754,0.00000483,-0.0000
 2037,0.00000250,0.00000136,-0.00000558,0.00000483,-0.00000344,0.000007
 24,-0.00000917,0.00000898,-0.00001837,-0.00000830,0.00000121,-0.000032
 53,0.00000790,0.00000032,0.00008324,-0.00045894,-0.00007241,0.00072507
 ,-0.00028734,-0.00007894,0.00314828,-0.00214468,0.00678695,0.00540788,
 -0.00252447,-0.03918028,-0.00036835,0.00148980,0.00000455,-0.00112754,
 -0.00000702,0.00021095,-0.00004800,-0.01786397,-0.00533839,-0.00660162
 ,-0.00063667,0.00671392,0.00026369,-0.00131044,0.00009441,0.00007423,-
 0.00050580,0.00017301,0.00046657,-0.00003039,-0.00017561,0.00036201,0.
 00014729,-0.00002302,-0.00010206,0.00013700,0.00032644,0.00023493,0.00
 042997,0.00013880,-0.01080997,-0.20021971,-0.12862145,0.00015343,-0.00
 011790,-0.00009592,0.00001812,-0.00004703,-0.00006030,0.00002683,0.000
 01735,-0.00014561,-0.00004826,-0.00026069,-0.00000979,-0.00000664,-0.0
 0023905,-0.00016708,-0.00015480,-0.00009349,-0.00000857,0.02066679,0.0
 0096751,-0.02247261,-0.00533610,0.02082228,-0.00382912,-0.00348104,0.2
 0013273,0.00009918,-0.00001695,0.00000894,-0.00002007,0.00001757,-0.00
 003041,0.00001602,0.00000333,-0.00000994,-0.00000127,0.00000321,-0.000
 00884,0.00003173,-0.00001367,0.00002096,-0.00004156,-0.00000583,0.0000
 3237,-0.00015372,-0.00000654,0.00004504,-0.00007634,-0.00001429,-0.000
 02937,0.00015187,-0.00001802,-0.00006056,-0.00057661,-0.00009538,-0.00
 018507,-0.00020383,0.00014030,-0.00010705,-0.00000148,-0.00000146,-0.0
 0000379,0.00000242,-0.00000202,-0.00000002,0.00000005,-0.00000027,-0.0
 0000054,-0.00000023,-0.00000057,-0.00000143,-0.00000249,-0.00000236,-0
 .00000098,-0.00003898,0.00001313,-0.00002402,0.00022015,-0.00006745,0.
 00017930,0.00057951,-0.00016399,0.00024561,-0.00118495,0.00155017,-0.0
 0044696,0.00026449,0.00023016,0.00005631,0.00008330,-0.00016052,0.0000
 6812,0.00002750,-0.00012020,-0.00004305,0.00002258,0.00004477,-0.00004
 077,0.00000775,0.00000858,0.00001103,-0.00004030,0.00001111,0.00001650
 ,-0.00001783,-0.00000062,-0.00002911,0.00000119,-0.00000514,0.00000401
 ,-0.00000753,-0.00000557,0.00000360,-0.00001305,0.00000067,-0.00000023
 ,-0.00000034,-0.00021328,0.00001456,0.00060729,-0.00047778,0.00005058,
 0.00239427,-0.00146354,0.00501002,0.00329756,0.00015590,-0.01273302,-0
 .00007702,0.00056915,-0.00009518,-0.00090010,0.00028990,-0.00007942,-0
 .00039700,-0.00500139,-0.00024825,-0.00388836,-0.00003610,0.00358610,0
 .00006013,-0.00048660,0.00007523,0.00002144,-0.00020448,0.00010403,0.0
 0025498,-0.00013197,0.00005134,0.00025989,0.00002195,0.00002169,-0.000
 05481,0.00014206,0.00021425,0.00008897,0.00019240,0.00000424,-0.009273
 83,-0.12981546,-0.21110923,0.00013114,-0.00010754,-0.00007223,0.000001
 64,-0.00005175,-0.00004016,0.00001910,-0.00001238,-0.00006942,-0.00001
 558,-0.00011724,0.00003178,-0.00000100,-0.00009159,-0.00005073,-0.0000
 7084,-0.00004187,0.00001025,0.03587345,-0.03029947,-0.03923346,-0.0320
 5865,-0.02002956,-0.06963183,0.00460018,0.18588848,0.32451918\\-0.0000
 0164,0.00001118,-0.00000330,0.00000254,0.00001967,0.00000180,0.0000026
 9,0.00002137,0.00000387,0.00000156,0.00001427,0.00000151,-0.00000205,0
 .00000703,-0.00000444,-0.00001002,0.00001239,0.00000585,-0.00000485,-0
 .00000395,-0.00000170,-0.00000486,0.00000764,0.00001305,0.00000367,0.0
 0001964,-0.00001067,-0.00000852,0.00000112,-0.00001324,0.00001515,0.00
 000820,-0.00000003,0.00000247,0.00002402,0.00000520,0.00000317,0.00002
 841,0.00000660,0.00000108,0.00001638,0.00000139,-0.00000162,-0.0000003
 4,-0.00000574,0.00001554,-0.00001009,-0.00001795,-0.00000119,0.0000013
 6,-0.00000653,-0.00000451,0.00000613,0.00001685,-0.00000515,0.00000916
 ,-0.00001026,-0.00001837,-0.00000583,-0.00001710,-0.00000153,0.0000131
 5,-0.00001715,0.00000257,0.00001873,0.00000614,-0.00000600,0.00000178,
 -0.00002610,0.00000525,0.00001776,0.00002616,-0.00000759,0.00000678,-0
 .00003167,-0.00000696,-0.00000362,-0.00002628,-0.00000770,0.00000848,-
 0.00003023,0.00000918,0.00002217,0.00002895,0.00000560,0.00002476,0.00
 001946,0.00000813,0.00001223,0.00002414,0.00000846,-0.00000461,0.00001
 620,-0.00000662,-0.00002720,0.00000404,-0.00000422,0.00000706,-0.00001
 214,0.00000562,0.00000190,-0.00000609,0.00000794,-0.00000924,0.0000254
 9,-0.00001320,-0.00001030,-0.00000493,0.00000723,-0.00001277,-0.000014
 91,-0.00000471,-0.00000687,-0.00001192,0.00000904,-0.00000265,0.000016
 72,0.00001004,0.00000530,0.00003173,0.00000129,-0.00001175,0.00000486,
 0.00000061,-0.00001198,-0.00000947,0.00000731,-0.00002225,0.00000970,0
 .00000423,-0.00001908,0.00002716,-0.00000469,-0.00000756,-0.00002737,-
 0.00000372,-0.00002863,-0.00000090,-0.00000239,-0.00003137,0.00001064,
 -0.00000363,-0.00003391,-0.00000211,0.00000472,-0.00002077,0.00001930,
 0.00000758,-0.00001855,0.00003465,0.00000791,-0.00001463,0.00002851,-0
 .00000752,-0.00001202,-0.00002258,-0.00000871,-0.00001721,-0.00002729,
 -0.00000860,-0.00000088,-0.00002786\\\@


 IT'S WHAT YOU LEARN AFTER YOU KNOW IT ALL
 THAT COUNTS.
 Job cpu time:       1 days 16 hours 18 minutes 32.3 seconds.
 Elapsed time:       0 days  1 hours 40 minutes 54.2 seconds.
 File lengths (MBytes):  RWF=   8060 Int=      0 D2E=      0 Chk=     64 Scr=      8
 Normal termination of Gaussian 16 at Fri Feb 21 20:02:30 2025.
