 Entering Gaussian System, Link 0=/sysapps/ubuntu-applications/gaussian-new/avx/g16//g16
 Input=ts-major.in
 Output=ts-major.log
 Initial command:
 /sysapps/ubuntu-applications/gaussian-new/avx/g16/l1.exe "/data/temp-scratch/selhajj1/7665531/Gau-1397804.inp" -scrdir="/data/temp-scratch/selhajj1/7665531/"
 Entering Link 1 = /sysapps/ubuntu-applications/gaussian-new/avx/g16/l1.exe PID=   1397806.
  
 Copyright (c) 1988,1990,1992,1993,1995,1998,2003,2009,2016,
            Gaussian, Inc.  All Rights Reserved.
  
 This is part of the Gaussian(R) 16 program.  It is based on
 the Gaussian(R) 09 system (copyright 2009, Gaussian, Inc.),
 the Gaussian(R) 03 system (copyright 2003, Gaussian, Inc.),
 the Gaussian(R) 98 system (copyright 1998, Gaussian, Inc.),
 the Gaussian(R) 94 system (copyright 1995, Gaussian, Inc.),
 the Gaussian 92(TM) system (copyright 1992, Gaussian, Inc.),
 the Gaussian 90(TM) system (copyright 1990, Gaussian, Inc.),
 the Gaussian 88(TM) system (copyright 1988, Gaussian, Inc.),
 the Gaussian 86(TM) system (copyright 1986, Carnegie Mellon
 University), and the Gaussian 82(TM) system (copyright 1983,
 Carnegie Mellon University). Gaussian is a federally registered
 trademark of Gaussian, Inc.
  
 This software contains proprietary and confidential information,
 including trade secrets, belonging to Gaussian, Inc.
  
 This software is provided under written license and may be
 used, copied, transmitted, or stored only in accord with that
 written license.
  
 The following legend is applicable only to US Government
 contracts under FAR:
  
                    RESTRICTED RIGHTS LEGEND
  
 Use, reproduction and disclosure by the US Government is
 subject to restrictions as set forth in subparagraphs (a)
 and (c) of the Commercial Computer Software - Restricted
 Rights clause in FAR 52.227-19.
  
 Gaussian, Inc.
 340 Quinnipiac St., Bldg. 40, Wallingford CT 06492
  
  
 ---------------------------------------------------------------
 Warning -- This program may not be used in any manner that
 competes with the business of Gaussian, Inc. or will provide
 assistance to any competitor of Gaussian, Inc.  The licensee
 of this program is prohibited from giving any competitor of
 Gaussian, Inc. access to this program.  By using this program,
 the user acknowledges that Gaussian, Inc. is engaged in the
 business of creating and licensing software in the field of
 computational chemistry and represents and warrants to the
 licensee that it is not a competitor of Gaussian, Inc. and that
 it will not use this program in any manner prohibited above.
 ---------------------------------------------------------------
  

 Cite this work as:
 Gaussian 16, Revision A.03,
 M. J. Frisch, G. W. Trucks, H. B. Schlegel, G. E. Scuseria, 
 M. A. Robb, J. R. Cheeseman, G. Scalmani, V. Barone, 
 G. A. Petersson, H. Nakatsuji, X. Li, M. Caricato, A. V. Marenich, 
 J. Bloino, B. G. Janesko, R. Gomperts, B. Mennucci, H. P. Hratchian, 
 J. V. Ortiz, A. F. Izmaylov, J. L. Sonnenberg, D. Williams-Young, 
 F. Ding, F. Lipparini, F. Egidi, J. Goings, B. Peng, A. Petrone, 
 T. Henderson, D. Ranasinghe, V. G. Zakrzewski, J. Gao, N. Rega, 
 G. Zheng, W. Liang, M. Hada, M. Ehara, K. Toyota, R. Fukuda, 
 J. Hasegawa, M. Ishida, T. Nakajima, Y. Honda, O. Kitao, H. Nakai, 
 T. Vreven, K. Throssell, J. A. Montgomery, Jr., J. E. Peralta, 
 F. Ogliaro, M. J. Bearpark, J. J. Heyd, E. N. Brothers, K. N. Kudin, 
 V. N. Staroverov, T. A. Keith, R. Kobayashi, J. Normand, 
 K. Raghavachari, A. P. Rendell, J. C. Burant, S. S. Iyengar, 
 J. Tomasi, M. Cossi, J. M. Millam, M. Klene, C. Adamo, R. Cammi, 
 J. W. Ochterski, R. L. Martin, K. Morokuma, O. Farkas, 
 J. B. Foresman, and D. J. Fox, Gaussian, Inc., Wallingford CT, 2016.
 
 ******************************************
 Gaussian 16:  ES64L-G16RevA.03 25-Dec-2016
                11-Mar-2025 
 ******************************************
 %chk=ts3.chk
 %mem=616Gb
 %nprocshared=24
 Will use up to   24 processors via shared memory.
 ----------------------------------------------------------------------
 #opt=(calcfc,modred) freq MN15/gen scf=(maxcyc=500) scrf=(smd,solvent=
 DiChloroEthane)
 ----------------------------------------------------------------------
 1/10=4,18=120,19=15,26=3,38=1/1,3;
 2/9=110,12=2,17=6,18=5,40=1/2;
 3/5=7,11=2,25=1,30=1,70=32201,71=2,72=10,74=-73,140=1/1,2,3;
 4//1;
 5/5=2,7=500,38=5,53=10/2;
 8/6=4,10=90,11=11/1;
 11/6=1,8=1,9=11,15=111,16=1/1,2,10;
 10/6=1,13=1/2;
 6/7=2,8=2,9=2,10=2,28=1/1;
 7/10=1,18=20,25=1/1,2,3,16;
 1/10=4,18=20,19=15,26=3/3(2);
 2/9=110/2;
 99//99;
 2/9=110/2;
 3/5=7,6=1,11=2,25=1,30=1,70=32205,71=1,72=10,74=-73,82=7/1,2,3;
 4/5=5,16=3,69=1/1;
 5/5=2,7=500,38=5,53=10/2;
 7//1,2,3,16;
 1/18=20,19=15,26=3/3(-5);
 2/9=110/2;
 6/7=2,8=2,9=2,10=2,19=2,28=1/1;
 99/9=1/99;
 -----------------------------------------------------------------
 ts opt for i3 Going from i2 to i3, where we are forming bond 7-66
 -----------------------------------------------------------------
 Symbolic Z-matrix:
 Charge =  0 Multiplicity = 1
 C                    -5.62125   0.70994   0.15584 
 C                    -5.9667    1.39609   1.32965 
 C                    -7.16014   2.11825   1.4001 
 C                    -8.02006   2.16718   0.30104 
 C                    -7.68315   1.48874  -0.87267 
 C                    -6.49198   0.76588  -0.94237 
 C                    -1.74837  -0.0094    0.54828 
 C                    -1.15251  -0.22403  -0.75915 
 C                    -0.81361   0.27191   1.62228 
 H                    -5.3087    1.37427   2.20162 
 H                    -7.41567   2.64797   2.32045 
 H                    -8.951     2.7357    0.35816 
 H                    -8.34789   1.52396  -1.73857 
 H                    -6.22672   0.23423  -1.86076 
 O                     0.40362  -0.03028   1.60443 
 O                     0.06427  -0.25775  -1.02442 
 O                    -2.01821  -0.47857  -1.71312 
 O                    -1.33517   0.7632    2.7182 
 C                    -1.50775  -0.81733  -3.00752 
 C                    -0.45553   1.00706   3.82422 
 H                    -2.37619  -1.08703  -3.61685 
 H                    -0.80966  -1.66244  -2.92748 
 H                    -0.98472   0.04372  -3.44381 
 H                    -1.06824   1.47296   4.60191 
 H                     0.35536   1.68056   3.51584 
 H                    -0.03076   0.06128   4.18517 
 O                     3.43003  -0.40761   1.44584 
 O                     2.8789   -0.7661   -1.51819 
 O                     0.42045   2.25349   0.14996 
 S                     1.15684   2.85879  -0.98999 
 S                     3.86913   0.94844   1.90597 
 S                     2.60843  -2.1819   -1.10146 
 O                     2.13111   1.80696  -1.43487 
 O                     1.65437   4.20411  -0.86062 
 O                     2.85207   1.86792   1.31248 
 O                     4.23056   1.11783   3.28677 
 O                     1.82543  -2.06774   0.15589 
 O                     2.12406  -3.0924   -2.11181 
 C                     4.27729  -2.82993  -0.59706 
 C                     5.37237   1.25681   0.88976 
 C                    -0.09076   2.92191  -2.37714 
 F                     4.13357  -3.59496   0.46853 
 F                     5.09722  -1.83543  -0.32363 
 F                     4.77242  -3.54271  -1.59124 
 F                     5.03958   1.1294   -0.384 
 F                     6.30123   0.3741    1.19925 
 F                     5.81902   2.47607   1.11419 
 F                    -0.39123   4.1785   -2.63087 
 F                    -1.19278   2.27646  -2.01996 
 F                     0.40888   2.3564   -3.45917 
 C                    -4.34642  -0.10301   0.03163 
 H                    -4.17802  -0.29941  -1.03631 
 C                    -4.52151  -1.53553   0.63601 
 C                    -5.67119  -2.21675   0.00829 
 C                    -4.76218  -1.47269   2.09408 
 C                    -0.99642  -2.7715    0.7748 
 C                    -2.21192  -3.60351  -1.12925 
 C                    -1.00186  -3.52558  -0.35461 
 H                    -0.11884  -2.68053   1.41375 
 H                    -2.26037  -4.18854  -2.05017 
 H                    -0.11658  -4.07859  -0.67268 
 N                    -6.61492  -2.69062  -0.46265 
 N                    -4.93642  -1.38216   3.24249 
 N                    -3.29277  -2.30698   0.37396 
 N                    -3.30809  -3.00877  -0.76925 
 C                    -2.16686  -1.99144   1.08813 
 H                    -2.3506   -1.68155   2.12214 
 Sc                    1.79006   0.2734    0.08556 
 C                    -3.13279   0.62762   0.63612 
 H                    -3.1002    1.62105   0.15929 
 H                    -3.33086   0.8064    1.70246 
 
 The following ModRedundant input section has been read:
 B       7      66 F                                                           
 B       7      66 F                                                           
 

 GradGradGradGradGradGradGradGradGradGradGradGradGradGradGradGradGradGrad
 Berny optimization.
 Initialization pass.
                           ----------------------------
                           !    Initial Parameters    !
                           ! (Angstroms and Degrees)  !
 --------------------------                            --------------------------
 ! Name  Definition              Value          Derivative Info.                !
 --------------------------------------------------------------------------------
 ! R1    R(1,2)                  1.4028         calculate D2E/DX2 analytically  !
 ! R2    R(1,6)                  1.4026         calculate D2E/DX2 analytically  !
 ! R3    R(1,51)                 1.5171         calculate D2E/DX2 analytically  !
 ! R4    R(2,3)                  1.3967         calculate D2E/DX2 analytically  !
 ! R5    R(2,10)                 1.0926         calculate D2E/DX2 analytically  !
 ! R6    R(3,4)                  1.3963         calculate D2E/DX2 analytically  !
 ! R7    R(3,11)                 1.0922         calculate D2E/DX2 analytically  !
 ! R8    R(4,5)                  1.3969         calculate D2E/DX2 analytically  !
 ! R9    R(4,12)                 1.0923         calculate D2E/DX2 analytically  !
 ! R10   R(5,6)                  1.3951         calculate D2E/DX2 analytically  !
 ! R11   R(5,13)                 1.0922         calculate D2E/DX2 analytically  !
 ! R12   R(6,14)                 1.0938         calculate D2E/DX2 analytically  !
 ! R13   R(7,8)                  1.4528         calculate D2E/DX2 analytically  !
 ! R14   R(7,9)                  1.4513         calculate D2E/DX2 analytically  !
 ! R15   R(7,66)                 2.0964         frozen, calculate D2E/DX2 analyt!
 ! R16   R(7,69)                 1.5265         calculate D2E/DX2 analytically  !
 ! R17   R(8,16)                 1.2458         calculate D2E/DX2 analytically  !
 ! R18   R(8,17)                 1.3131         calculate D2E/DX2 analytically  !
 ! R19   R(9,15)                 1.2543         calculate D2E/DX2 analytically  !
 ! R20   R(9,18)                 1.3094         calculate D2E/DX2 analytically  !
 ! R21   R(15,68)                2.0788         calculate D2E/DX2 analytically  !
 ! R22   R(16,68)                2.1196         calculate D2E/DX2 analytically  !
 ! R23   R(17,19)                1.4321         calculate D2E/DX2 analytically  !
 ! R24   R(18,20)                1.4341         calculate D2E/DX2 analytically  !
 ! R25   R(19,21)                1.0946         calculate D2E/DX2 analytically  !
 ! R26   R(19,22)                1.0991         calculate D2E/DX2 analytically  !
 ! R27   R(19,23)                1.0979         calculate D2E/DX2 analytically  !
 ! R28   R(20,24)                1.0942         calculate D2E/DX2 analytically  !
 ! R29   R(20,25)                1.0983         calculate D2E/DX2 analytically  !
 ! R30   R(20,26)                1.0978         calculate D2E/DX2 analytically  !
 ! R31   R(27,31)                1.4978         calculate D2E/DX2 analytically  !
 ! R32   R(27,68)                2.2369         calculate D2E/DX2 analytically  !
 ! R33   R(28,32)                1.5004         calculate D2E/DX2 analytically  !
 ! R34   R(28,68)                2.1996         calculate D2E/DX2 analytically  !
 ! R35   R(29,30)                1.486          calculate D2E/DX2 analytically  !
 ! R36   R(29,68)                2.4085         calculate D2E/DX2 analytically  !
 ! R37   R(30,33)                1.5012         calculate D2E/DX2 analytically  !
 ! R38   R(30,34)                1.4402         calculate D2E/DX2 analytically  !
 ! R39   R(30,41)                1.8667         calculate D2E/DX2 analytically  !
 ! R40   R(30,68)                2.8709         calculate D2E/DX2 analytically  !
 ! R41   R(31,35)                1.494          calculate D2E/DX2 analytically  !
 ! R42   R(31,36)                1.4373         calculate D2E/DX2 analytically  !
 ! R43   R(31,40)                1.8405         calculate D2E/DX2 analytically  !
 ! R44   R(31,68)                2.8447         calculate D2E/DX2 analytically  !
 ! R45   R(32,37)                1.4856         calculate D2E/DX2 analytically  !
 ! R46   R(32,38)                1.4438         calculate D2E/DX2 analytically  !
 ! R47   R(32,39)                1.86           calculate D2E/DX2 analytically  !
 ! R48   R(32,68)                2.8473         calculate D2E/DX2 analytically  !
 ! R49   R(33,68)                2.1863         calculate D2E/DX2 analytically  !
 ! R50   R(35,68)                2.275          calculate D2E/DX2 analytically  !
 ! R51   R(37,68)                2.3425         calculate D2E/DX2 analytically  !
 ! R52   R(39,42)                1.3196         calculate D2E/DX2 analytically  !
 ! R53   R(39,43)                1.3176         calculate D2E/DX2 analytically  !
 ! R54   R(39,44)                1.3197         calculate D2E/DX2 analytically  !
 ! R55   R(40,45)                1.3227         calculate D2E/DX2 analytically  !
 ! R56   R(40,46)                1.3182         calculate D2E/DX2 analytically  !
 ! R57   R(40,47)                1.3178         calculate D2E/DX2 analytically  !
 ! R58   R(41,48)                1.3167         calculate D2E/DX2 analytically  !
 ! R59   R(41,49)                1.3261         calculate D2E/DX2 analytically  !
 ! R60   R(41,50)                1.3192         calculate D2E/DX2 analytically  !
 ! R61   R(51,52)                1.0988         calculate D2E/DX2 analytically  !
 ! R62   R(51,53)                1.5646         calculate D2E/DX2 analytically  !
 ! R63   R(51,69)                1.5402         calculate D2E/DX2 analytically  !
 ! R64   R(53,54)                1.4764         calculate D2E/DX2 analytically  !
 ! R65   R(53,55)                1.4791         calculate D2E/DX2 analytically  !
 ! R66   R(53,64)                1.4743         calculate D2E/DX2 analytically  !
 ! R67   R(54,62)                1.1563         calculate D2E/DX2 analytically  !
 ! R68   R(55,63)                1.1651         calculate D2E/DX2 analytically  !
 ! R69   R(56,58)                1.358          calculate D2E/DX2 analytically  !
 ! R70   R(56,59)                1.0893         calculate D2E/DX2 analytically  !
 ! R71   R(56,66)                1.441          calculate D2E/DX2 analytically  !
 ! R72   R(57,58)                1.4389         calculate D2E/DX2 analytically  !
 ! R73   R(57,60)                1.0921         calculate D2E/DX2 analytically  !
 ! R74   R(57,65)                1.298          calculate D2E/DX2 analytically  !
 ! R75   R(58,61)                1.0912         calculate D2E/DX2 analytically  !
 ! R76   R(64,65)                1.3415         calculate D2E/DX2 analytically  !
 ! R77   R(64,66)                1.3701         calculate D2E/DX2 analytically  !
 ! R78   R(66,67)                1.095          calculate D2E/DX2 analytically  !
 ! R79   R(69,70)                1.1024         calculate D2E/DX2 analytically  !
 ! R80   R(69,71)                1.0992         calculate D2E/DX2 analytically  !
 ! A1    A(2,1,6)              118.866          calculate D2E/DX2 analytically  !
 ! A2    A(2,1,51)             122.516          calculate D2E/DX2 analytically  !
 ! A3    A(6,1,51)             118.6153         calculate D2E/DX2 analytically  !
 ! A4    A(1,2,3)              120.3651         calculate D2E/DX2 analytically  !
 ! A5    A(1,2,10)             120.6444         calculate D2E/DX2 analytically  !
 ! A6    A(3,2,10)             118.9905         calculate D2E/DX2 analytically  !
 ! A7    A(2,3,4)              120.3069         calculate D2E/DX2 analytically  !
 ! A8    A(2,3,11)             119.5488         calculate D2E/DX2 analytically  !
 ! A9    A(4,3,11)             120.1441         calculate D2E/DX2 analytically  !
 ! A10   A(3,4,5)              119.7214         calculate D2E/DX2 analytically  !
 ! A11   A(3,4,12)             120.1281         calculate D2E/DX2 analytically  !
 ! A12   A(5,4,12)             120.1503         calculate D2E/DX2 analytically  !
 ! A13   A(4,5,6)              119.9703         calculate D2E/DX2 analytically  !
 ! A14   A(4,5,13)             120.2434         calculate D2E/DX2 analytically  !
 ! A15   A(6,5,13)             119.7861         calculate D2E/DX2 analytically  !
 ! A16   A(1,6,5)              120.7701         calculate D2E/DX2 analytically  !
 ! A17   A(1,6,14)             119.1739         calculate D2E/DX2 analytically  !
 ! A18   A(5,6,14)             120.056          calculate D2E/DX2 analytically  !
 ! A19   A(8,7,9)              115.4962         calculate D2E/DX2 analytically  !
 ! A20   A(8,7,69)             119.0403         calculate D2E/DX2 analytically  !
 ! A21   A(9,7,69)             117.4299         calculate D2E/DX2 analytically  !
 ! A22   A(7,8,16)             126.5999         calculate D2E/DX2 analytically  !
 ! A23   A(7,8,17)             114.3342         calculate D2E/DX2 analytically  !
 ! A24   A(16,8,17)            118.9446         calculate D2E/DX2 analytically  !
 ! A25   A(7,9,15)             124.597          calculate D2E/DX2 analytically  !
 ! A26   A(7,9,18)             115.82           calculate D2E/DX2 analytically  !
 ! A27   A(15,9,18)            119.2662         calculate D2E/DX2 analytically  !
 ! A28   A(9,15,68)            128.4936         calculate D2E/DX2 analytically  !
 ! A29   A(8,16,68)            132.606          calculate D2E/DX2 analytically  !
 ! A30   A(8,17,19)            117.8729         calculate D2E/DX2 analytically  !
 ! A31   A(9,18,20)            117.7098         calculate D2E/DX2 analytically  !
 ! A32   A(17,19,21)           106.1786         calculate D2E/DX2 analytically  !
 ! A33   A(17,19,22)           110.028          calculate D2E/DX2 analytically  !
 ! A34   A(17,19,23)           110.0893         calculate D2E/DX2 analytically  !
 ! A35   A(21,19,22)           110.7934         calculate D2E/DX2 analytically  !
 ! A36   A(21,19,23)           110.4862         calculate D2E/DX2 analytically  !
 ! A37   A(22,19,23)           109.2335         calculate D2E/DX2 analytically  !
 ! A38   A(18,20,24)           106.086          calculate D2E/DX2 analytically  !
 ! A39   A(18,20,25)           109.9141         calculate D2E/DX2 analytically  !
 ! A40   A(18,20,26)           110.1459         calculate D2E/DX2 analytically  !
 ! A41   A(24,20,25)           110.6027         calculate D2E/DX2 analytically  !
 ! A42   A(24,20,26)           110.475          calculate D2E/DX2 analytically  !
 ! A43   A(25,20,26)           109.5694         calculate D2E/DX2 analytically  !
 ! A44   A(29,30,33)           105.2811         calculate D2E/DX2 analytically  !
 ! A45   A(29,30,34)           118.8682         calculate D2E/DX2 analytically  !
 ! A46   A(29,30,41)           104.6333         calculate D2E/DX2 analytically  !
 ! A47   A(33,30,34)           117.1892         calculate D2E/DX2 analytically  !
 ! A48   A(33,30,41)           103.7226         calculate D2E/DX2 analytically  !
 ! A49   A(34,30,41)           105.4294         calculate D2E/DX2 analytically  !
 ! A50   A(34,30,68)           137.002          calculate D2E/DX2 analytically  !
 ! A51   A(41,30,68)           117.1455         calculate D2E/DX2 analytically  !
 ! A52   A(27,31,35)           103.6264         calculate D2E/DX2 analytically  !
 ! A53   A(27,31,36)           118.3942         calculate D2E/DX2 analytically  !
 ! A54   A(27,31,40)           102.7983         calculate D2E/DX2 analytically  !
 ! A55   A(35,31,36)           118.703          calculate D2E/DX2 analytically  !
 ! A56   A(35,31,40)           103.5069         calculate D2E/DX2 analytically  !
 ! A57   A(36,31,40)           107.7755         calculate D2E/DX2 analytically  !
 ! A58   A(36,31,68)           145.7424         calculate D2E/DX2 analytically  !
 ! A59   A(40,31,68)           106.4613         calculate D2E/DX2 analytically  !
 ! A60   A(28,32,37)           104.9252         calculate D2E/DX2 analytically  !
 ! A61   A(28,32,38)           117.4636         calculate D2E/DX2 analytically  !
 ! A62   A(28,32,39)           104.0247         calculate D2E/DX2 analytically  !
 ! A63   A(37,32,38)           117.6402         calculate D2E/DX2 analytically  !
 ! A64   A(37,32,39)           105.6735         calculate D2E/DX2 analytically  !
 ! A65   A(38,32,39)           105.7288         calculate D2E/DX2 analytically  !
 ! A66   A(38,32,68)           137.6574         calculate D2E/DX2 analytically  !
 ! A67   A(39,32,68)           116.4407         calculate D2E/DX2 analytically  !
 ! A68   A(32,39,42)           108.8599         calculate D2E/DX2 analytically  !
 ! A69   A(32,39,43)           110.5889         calculate D2E/DX2 analytically  !
 ! A70   A(32,39,44)           108.6944         calculate D2E/DX2 analytically  !
 ! A71   A(42,39,43)           109.7411         calculate D2E/DX2 analytically  !
 ! A72   A(42,39,44)           109.6369         calculate D2E/DX2 analytically  !
 ! A73   A(43,39,44)           109.3            calculate D2E/DX2 analytically  !
 ! A74   A(31,40,45)           108.0638         calculate D2E/DX2 analytically  !
 ! A75   A(31,40,46)           109.4925         calculate D2E/DX2 analytically  !
 ! A76   A(31,40,47)           109.7445         calculate D2E/DX2 analytically  !
 ! A77   A(45,40,46)           109.8086         calculate D2E/DX2 analytically  !
 ! A78   A(45,40,47)           109.7807         calculate D2E/DX2 analytically  !
 ! A79   A(46,40,47)           109.9228         calculate D2E/DX2 analytically  !
 ! A80   A(30,41,48)           109.1458         calculate D2E/DX2 analytically  !
 ! A81   A(30,41,49)           109.8028         calculate D2E/DX2 analytically  !
 ! A82   A(30,41,50)           109.9917         calculate D2E/DX2 analytically  !
 ! A83   A(48,41,49)           109.0727         calculate D2E/DX2 analytically  !
 ! A84   A(48,41,50)           109.7238         calculate D2E/DX2 analytically  !
 ! A85   A(49,41,50)           109.0879         calculate D2E/DX2 analytically  !
 ! A86   A(1,51,52)            107.7064         calculate D2E/DX2 analytically  !
 ! A87   A(1,51,53)            111.4049         calculate D2E/DX2 analytically  !
 ! A88   A(1,51,69)            112.0753         calculate D2E/DX2 analytically  !
 ! A89   A(52,51,53)           103.2337         calculate D2E/DX2 analytically  !
 ! A90   A(52,51,69)           110.2108         calculate D2E/DX2 analytically  !
 ! A91   A(53,51,69)           111.7711         calculate D2E/DX2 analytically  !
 ! A92   A(51,53,54)           110.2032         calculate D2E/DX2 analytically  !
 ! A93   A(51,53,55)           111.1058         calculate D2E/DX2 analytically  !
 ! A94   A(51,53,64)           108.4913         calculate D2E/DX2 analytically  !
 ! A95   A(54,53,55)           108.18           calculate D2E/DX2 analytically  !
 ! A96   A(54,53,64)           109.3889         calculate D2E/DX2 analytically  !
 ! A97   A(55,53,64)           109.4539         calculate D2E/DX2 analytically  !
 ! A98   A(58,56,59)           122.5073         calculate D2E/DX2 analytically  !
 ! A99   A(58,56,66)           118.5649         calculate D2E/DX2 analytically  !
 ! A100  A(59,56,66)           118.7887         calculate D2E/DX2 analytically  !
 ! A101  A(58,57,60)           121.352          calculate D2E/DX2 analytically  !
 ! A102  A(58,57,65)           122.4156         calculate D2E/DX2 analytically  !
 ! A103  A(60,57,65)           116.2221         calculate D2E/DX2 analytically  !
 ! A104  A(56,58,57)           118.7626         calculate D2E/DX2 analytically  !
 ! A105  A(56,58,61)           121.3707         calculate D2E/DX2 analytically  !
 ! A106  A(57,58,61)           119.8611         calculate D2E/DX2 analytically  !
 ! A107  A(53,64,65)           114.5625         calculate D2E/DX2 analytically  !
 ! A108  A(53,64,66)           118.1459         calculate D2E/DX2 analytically  !
 ! A109  A(65,64,66)           125.0326         calculate D2E/DX2 analytically  !
 ! A110  A(57,65,64)           117.8005         calculate D2E/DX2 analytically  !
 ! A111  A(56,66,64)           115.4321         calculate D2E/DX2 analytically  !
 ! A112  A(56,66,67)           119.6582         calculate D2E/DX2 analytically  !
 ! A113  A(64,66,67)           114.8028         calculate D2E/DX2 analytically  !
 ! A114  A(15,68,16)            78.6374         calculate D2E/DX2 analytically  !
 ! A115  A(15,68,27)            90.0101         calculate D2E/DX2 analytically  !
 ! A116  A(15,68,28)           142.5458         calculate D2E/DX2 analytically  !
 ! A117  A(15,68,29)            73.8174         calculate D2E/DX2 analytically  !
 ! A118  A(15,68,30)           104.9623         calculate D2E/DX2 analytically  !
 ! A119  A(15,68,31)            93.1268         calculate D2E/DX2 analytically  !
 ! A120  A(15,68,32)           111.7352         calculate D2E/DX2 analytically  !
 ! A121  A(15,68,33)           135.6134         calculate D2E/DX2 analytically  !
 ! A122  A(15,68,35)            91.1284         calculate D2E/DX2 analytically  !
 ! A123  A(15,68,37)            80.9167         calculate D2E/DX2 analytically  !
 ! A124  A(16,68,27)           147.0465         calculate D2E/DX2 analytically  !
 ! A125  A(16,68,28)            84.4221         calculate D2E/DX2 analytically  !
 ! A126  A(16,68,29)            75.9369         calculate D2E/DX2 analytically  !
 ! A127  A(16,68,30)            81.3668         calculate D2E/DX2 analytically  !
 ! A128  A(16,68,32)            78.4402         calculate D2E/DX2 analytically  !
 ! A129  A(16,68,33)            86.4799         calculate D2E/DX2 analytically  !
 ! A130  A(16,68,35)           146.9457         calculate D2E/DX2 analytically  !
 ! A131  A(16,68,37)            77.1479         calculate D2E/DX2 analytically  !
 ! A132  A(27,68,28)            86.3639         calculate D2E/DX2 analytically  !
 ! A133  A(27,68,29)           130.6135         calculate D2E/DX2 analytically  !
 ! A134  A(27,68,30)           131.5829         calculate D2E/DX2 analytically  !
 ! A135  A(27,68,32)            77.3065         calculate D2E/DX2 analytically  !
 ! A136  A(27,68,33)           121.4728         calculate D2E/DX2 analytically  !
 ! A137  A(27,68,35)            62.8179         calculate D2E/DX2 analytically  !
 ! A138  A(27,68,37)            70.5122         calculate D2E/DX2 analytically  !
 ! A139  A(28,68,29)           133.5929         calculate D2E/DX2 analytically  !
 ! A140  A(28,68,30)           105.1663         calculate D2E/DX2 analytically  !
 ! A141  A(28,68,31)           102.5292         calculate D2E/DX2 analytically  !
 ! A142  A(28,68,33)            75.3577         calculate D2E/DX2 analytically  !
 ! A143  A(28,68,35)           119.5615         calculate D2E/DX2 analytically  !
 ! A144  A(28,68,37)            62.7478         calculate D2E/DX2 analytically  !
 ! A145  A(29,68,31)           101.7367         calculate D2E/DX2 analytically  !
 ! A146  A(29,68,32)           152.0717         calculate D2E/DX2 analytically  !
 ! A147  A(29,68,33)            62.006          calculate D2E/DX2 analytically  !
 ! A148  A(29,68,35)            71.0236         calculate D2E/DX2 analytically  !
 ! A149  A(29,68,37)           146.0429         calculate D2E/DX2 analytically  !
 ! A150  A(30,68,31)           100.7924         calculate D2E/DX2 analytically  !
 ! A151  A(30,68,32)           133.1394         calculate D2E/DX2 analytically  !
 ! A152  A(30,68,35)            70.9632         calculate D2E/DX2 analytically  !
 ! A153  A(30,68,37)           156.1523         calculate D2E/DX2 analytically  !
 ! A154  A(31,68,32)           105.1499         calculate D2E/DX2 analytically  !
 ! A155  A(31,68,33)            99.4725         calculate D2E/DX2 analytically  !
 ! A156  A(31,68,37)           101.9416         calculate D2E/DX2 analytically  !
 ! A157  A(32,68,33)           105.6708         calculate D2E/DX2 analytically  !
 ! A158  A(32,68,35)           134.0305         calculate D2E/DX2 analytically  !
 ! A159  A(33,68,35)            79.0822         calculate D2E/DX2 analytically  !
 ! A160  A(33,68,37)           136.0192         calculate D2E/DX2 analytically  !
 ! A161  A(35,68,37)           132.6288         calculate D2E/DX2 analytically  !
 ! A162  A(7,69,51)            119.6107         calculate D2E/DX2 analytically  !
 ! A163  A(7,69,70)            108.9271         calculate D2E/DX2 analytically  !
 ! A164  A(7,69,71)            106.6852         calculate D2E/DX2 analytically  !
 ! A165  A(51,69,70)           106.3205         calculate D2E/DX2 analytically  !
 ! A166  A(51,69,71)           108.4157         calculate D2E/DX2 analytically  !
 ! A167  A(70,69,71)           106.1624         calculate D2E/DX2 analytically  !
 ! A168  L(53,54,62,3,-1)      176.222          calculate D2E/DX2 analytically  !
 ! A169  L(53,55,63,2,-1)      178.4642         calculate D2E/DX2 analytically  !
 ! A170  L(16,68,31,15,-1)     171.7642         calculate D2E/DX2 analytically  !
 ! A171  L(53,54,62,3,-2)      180.3749         calculate D2E/DX2 analytically  !
 ! A172  L(53,55,63,2,-2)      181.5224         calculate D2E/DX2 analytically  !
 ! A173  L(16,68,31,15,-2)     180.2038         calculate D2E/DX2 analytically  !
 ! D1    D(6,1,2,3)              0.1743         calculate D2E/DX2 analytically  !
 ! D2    D(6,1,2,10)          -179.8463         calculate D2E/DX2 analytically  !
 ! D3    D(51,1,2,3)          -179.2239         calculate D2E/DX2 analytically  !
 ! D4    D(51,1,2,10)            0.7556         calculate D2E/DX2 analytically  !
 ! D5    D(2,1,6,5)             -0.0846         calculate D2E/DX2 analytically  !
 ! D6    D(2,1,6,14)           179.8899         calculate D2E/DX2 analytically  !
 ! D7    D(51,1,6,5)           179.3373         calculate D2E/DX2 analytically  !
 ! D8    D(51,1,6,14)           -0.6883         calculate D2E/DX2 analytically  !
 ! D9    D(2,1,51,52)         -164.7184         calculate D2E/DX2 analytically  !
 ! D10   D(2,1,51,53)           82.7458         calculate D2E/DX2 analytically  !
 ! D11   D(2,1,51,69)          -43.331          calculate D2E/DX2 analytically  !
 ! D12   D(6,1,51,52)           15.882          calculate D2E/DX2 analytically  !
 ! D13   D(6,1,51,53)          -96.6538         calculate D2E/DX2 analytically  !
 ! D14   D(6,1,51,69)          137.2694         calculate D2E/DX2 analytically  !
 ! D15   D(1,2,3,4)             -0.1629         calculate D2E/DX2 analytically  !
 ! D16   D(1,2,3,11)          -179.9689         calculate D2E/DX2 analytically  !
 ! D17   D(10,2,3,4)           179.8573         calculate D2E/DX2 analytically  !
 ! D18   D(10,2,3,11)            0.0513         calculate D2E/DX2 analytically  !
 ! D19   D(2,3,4,5)              0.0585         calculate D2E/DX2 analytically  !
 ! D20   D(2,3,4,12)          -179.7863         calculate D2E/DX2 analytically  !
 ! D21   D(11,3,4,5)           179.8634         calculate D2E/DX2 analytically  !
 ! D22   D(11,3,4,12)            0.0185         calculate D2E/DX2 analytically  !
 ! D23   D(3,4,5,6)              0.0313         calculate D2E/DX2 analytically  !
 ! D24   D(3,4,5,13)          -179.7974         calculate D2E/DX2 analytically  !
 ! D25   D(12,4,5,6)           179.8761         calculate D2E/DX2 analytically  !
 ! D26   D(12,4,5,13)            0.0474         calculate D2E/DX2 analytically  !
 ! D27   D(4,5,6,1)             -0.0176         calculate D2E/DX2 analytically  !
 ! D28   D(4,5,6,14)          -179.9918         calculate D2E/DX2 analytically  !
 ! D29   D(13,5,6,1)           179.812          calculate D2E/DX2 analytically  !
 ! D30   D(13,5,6,14)           -0.1623         calculate D2E/DX2 analytically  !
 ! D31   D(9,7,8,16)             3.981          calculate D2E/DX2 analytically  !
 ! D32   D(9,7,8,17)           179.9034         calculate D2E/DX2 analytically  !
 ! D33   D(69,7,8,16)          152.0343         calculate D2E/DX2 analytically  !
 ! D34   D(69,7,8,17)          -32.0432         calculate D2E/DX2 analytically  !
 ! D35   D(8,7,9,15)           -21.5966         calculate D2E/DX2 analytically  !
 ! D36   D(8,7,9,18)           164.9394         calculate D2E/DX2 analytically  !
 ! D37   D(69,7,9,15)         -170.1836         calculate D2E/DX2 analytically  !
 ! D38   D(69,7,9,18)           16.3524         calculate D2E/DX2 analytically  !
 ! D39   D(8,7,69,51)           63.4319         calculate D2E/DX2 analytically  !
 ! D40   D(8,7,69,70)          -59.0191         calculate D2E/DX2 analytically  !
 ! D41   D(8,7,69,71)         -173.223          calculate D2E/DX2 analytically  !
 ! D42   D(9,7,69,51)         -149.1221         calculate D2E/DX2 analytically  !
 ! D43   D(9,7,69,70)           88.4268         calculate D2E/DX2 analytically  !
 ! D44   D(9,7,69,71)          -25.7771         calculate D2E/DX2 analytically  !
 ! D45   D(7,8,16,68)          -12.0            calculate D2E/DX2 analytically  !
 ! D46   D(17,8,16,68)         172.2459         calculate D2E/DX2 analytically  !
 ! D47   D(7,8,17,19)         -174.6669         calculate D2E/DX2 analytically  !
 ! D48   D(16,8,17,19)           1.5929         calculate D2E/DX2 analytically  !
 ! D49   D(7,9,15,68)           47.3841         calculate D2E/DX2 analytically  !
 ! D50   D(18,9,15,68)        -139.3612         calculate D2E/DX2 analytically  !
 ! D51   D(7,9,18,20)          177.6029         calculate D2E/DX2 analytically  !
 ! D52   D(15,9,18,20)           3.7689         calculate D2E/DX2 analytically  !
 ! D53   D(9,15,68,16)         -38.5993         calculate D2E/DX2 analytically  !
 ! D54   D(9,15,68,27)         172.5466         calculate D2E/DX2 analytically  !
 ! D55   D(9,15,68,28)        -103.4262         calculate D2E/DX2 analytically  !
 ! D56   D(9,15,68,29)          39.8779         calculate D2E/DX2 analytically  !
 ! D57   D(9,15,68,30)          39.1501         calculate D2E/DX2 analytically  !
 ! D58   D(9,15,68,31)         141.1969         calculate D2E/DX2 analytically  !
 ! D59   D(9,15,68,32)        -111.1325         calculate D2E/DX2 analytically  !
 ! D60   D(9,15,68,33)          34.2529         calculate D2E/DX2 analytically  !
 ! D61   D(9,15,68,35)         109.7342         calculate D2E/DX2 analytically  !
 ! D62   D(9,15,68,37)        -117.2006         calculate D2E/DX2 analytically  !
 ! D63   D(8,16,68,15)          21.8742         calculate D2E/DX2 analytically  !
 ! D64   D(8,16,68,27)          93.835          calculate D2E/DX2 analytically  !
 ! D65   D(8,16,68,28)         168.3018         calculate D2E/DX2 analytically  !
 ! D66   D(8,16,68,29)         -54.079          calculate D2E/DX2 analytically  !
 ! D67   D(8,16,68,30)         -85.3958         calculate D2E/DX2 analytically  !
 ! D68   D(8,16,68,32)         137.129          calculate D2E/DX2 analytically  !
 ! D69   D(8,16,68,33)        -116.0845         calculate D2E/DX2 analytically  !
 ! D70   D(8,16,68,35)         -52.3437         calculate D2E/DX2 analytically  !
 ! D71   D(8,16,68,37)         105.0216         calculate D2E/DX2 analytically  !
 ! D72   D(8,17,19,21)         174.4108         calculate D2E/DX2 analytically  !
 ! D73   D(8,17,19,22)          54.4646         calculate D2E/DX2 analytically  !
 ! D74   D(8,17,19,23)         -65.9768         calculate D2E/DX2 analytically  !
 ! D75   D(9,18,20,24)         176.2696         calculate D2E/DX2 analytically  !
 ! D76   D(9,18,20,25)          56.6668         calculate D2E/DX2 analytically  !
 ! D77   D(9,18,20,26)         -64.1551         calculate D2E/DX2 analytically  !
 ! D78   D(29,30,41,48)        111.8802         calculate D2E/DX2 analytically  !
 ! D79   D(29,30,41,49)         -7.6348         calculate D2E/DX2 analytically  !
 ! D80   D(29,30,41,50)       -127.6915         calculate D2E/DX2 analytically  !
 ! D81   D(33,30,41,48)       -137.9897         calculate D2E/DX2 analytically  !
 ! D82   D(33,30,41,49)        102.4953         calculate D2E/DX2 analytically  !
 ! D83   D(33,30,41,50)        -17.5614         calculate D2E/DX2 analytically  !
 ! D84   D(34,30,41,48)        -14.2556         calculate D2E/DX2 analytically  !
 ! D85   D(34,30,41,49)       -133.7707         calculate D2E/DX2 analytically  !
 ! D86   D(34,30,41,50)        106.1726         calculate D2E/DX2 analytically  !
 ! D87   D(68,30,41,48)        171.9436         calculate D2E/DX2 analytically  !
 ! D88   D(68,30,41,49)         52.4286         calculate D2E/DX2 analytically  !
 ! D89   D(68,30,41,50)        -67.6281         calculate D2E/DX2 analytically  !
 ! D90   D(34,30,68,15)         99.8234         calculate D2E/DX2 analytically  !
 ! D91   D(34,30,68,16)        175.5325         calculate D2E/DX2 analytically  !
 ! D92   D(34,30,68,27)         -3.9081         calculate D2E/DX2 analytically  !
 ! D93   D(34,30,68,28)       -102.6899         calculate D2E/DX2 analytically  !
 ! D94   D(34,30,68,31)          3.5992         calculate D2E/DX2 analytically  !
 ! D95   D(34,30,68,32)       -119.3049         calculate D2E/DX2 analytically  !
 ! D96   D(34,30,68,35)         13.8746         calculate D2E/DX2 analytically  !
 ! D97   D(34,30,68,37)       -158.617          calculate D2E/DX2 analytically  !
 ! D98   D(41,30,68,15)        -88.9564         calculate D2E/DX2 analytically  !
 ! D99   D(41,30,68,16)        -13.2473         calculate D2E/DX2 analytically  !
 ! D100  D(41,30,68,27)        167.3121         calculate D2E/DX2 analytically  !
 ! D101  D(41,30,68,28)         68.5303         calculate D2E/DX2 analytically  !
 ! D102  D(41,30,68,31)        174.8194         calculate D2E/DX2 analytically  !
 ! D103  D(41,30,68,32)         51.9153         calculate D2E/DX2 analytically  !
 ! D104  D(41,30,68,35)       -174.9052         calculate D2E/DX2 analytically  !
 ! D105  D(41,30,68,37)         12.6032         calculate D2E/DX2 analytically  !
 ! D106  D(27,31,40,45)         55.4706         calculate D2E/DX2 analytically  !
 ! D107  D(27,31,40,46)        -64.1049         calculate D2E/DX2 analytically  !
 ! D108  D(27,31,40,47)        175.1579         calculate D2E/DX2 analytically  !
 ! D109  D(35,31,40,45)        -52.1691         calculate D2E/DX2 analytically  !
 ! D110  D(35,31,40,46)       -171.7445         calculate D2E/DX2 analytically  !
 ! D111  D(35,31,40,47)         67.5182         calculate D2E/DX2 analytically  !
 ! D112  D(36,31,40,45)       -178.7318         calculate D2E/DX2 analytically  !
 ! D113  D(36,31,40,46)         61.6928         calculate D2E/DX2 analytically  !
 ! D114  D(36,31,40,47)        -59.0444         calculate D2E/DX2 analytically  !
 ! D115  D(68,31,40,45)          2.4795         calculate D2E/DX2 analytically  !
 ! D116  D(68,31,40,46)       -117.0959         calculate D2E/DX2 analytically  !
 ! D117  D(68,31,40,47)        122.1669         calculate D2E/DX2 analytically  !
 ! D118  D(36,31,68,15)          0.3406         calculate D2E/DX2 analytically  !
 ! D119  D(36,31,68,28)       -145.4061         calculate D2E/DX2 analytically  !
 ! D120  D(36,31,68,29)         74.4545         calculate D2E/DX2 analytically  !
 ! D121  D(36,31,68,30)        106.2215         calculate D2E/DX2 analytically  !
 ! D122  D(36,31,68,32)       -113.1759         calculate D2E/DX2 analytically  !
 ! D123  D(36,31,68,33)        137.6233         calculate D2E/DX2 analytically  !
 ! D124  D(36,31,68,37)        -81.0296         calculate D2E/DX2 analytically  !
 ! D125  D(40,31,68,15)        178.2912         calculate D2E/DX2 analytically  !
 ! D126  D(40,31,68,28)         32.5445         calculate D2E/DX2 analytically  !
 ! D127  D(40,31,68,29)       -107.5948         calculate D2E/DX2 analytically  !
 ! D128  D(40,31,68,30)        -75.8279         calculate D2E/DX2 analytically  !
 ! D129  D(40,31,68,32)         64.7748         calculate D2E/DX2 analytically  !
 ! D130  D(40,31,68,33)        -44.426          calculate D2E/DX2 analytically  !
 ! D131  D(40,31,68,37)         96.921          calculate D2E/DX2 analytically  !
 ! D132  D(28,32,39,42)        140.9106         calculate D2E/DX2 analytically  !
 ! D133  D(28,32,39,43)         20.2728         calculate D2E/DX2 analytically  !
 ! D134  D(28,32,39,44)        -99.7167         calculate D2E/DX2 analytically  !
 ! D135  D(37,32,39,42)         30.6794         calculate D2E/DX2 analytically  !
 ! D136  D(37,32,39,43)        -89.9584         calculate D2E/DX2 analytically  !
 ! D137  D(37,32,39,44)        150.0521         calculate D2E/DX2 analytically  !
 ! D138  D(38,32,39,42)        -94.743          calculate D2E/DX2 analytically  !
 ! D139  D(38,32,39,43)        144.6192         calculate D2E/DX2 analytically  !
 ! D140  D(38,32,39,44)         24.6297         calculate D2E/DX2 analytically  !
 ! D141  D(68,32,39,42)         89.1914         calculate D2E/DX2 analytically  !
 ! D142  D(68,32,39,43)        -31.4463         calculate D2E/DX2 analytically  !
 ! D143  D(68,32,39,44)       -151.4358         calculate D2E/DX2 analytically  !
 ! D144  D(38,32,68,15)         82.8121         calculate D2E/DX2 analytically  !
 ! D145  D(38,32,68,16)         10.1514         calculate D2E/DX2 analytically  !
 ! D146  D(38,32,68,27)        167.6715         calculate D2E/DX2 analytically  !
 ! D147  D(38,32,68,29)        -13.5869         calculate D2E/DX2 analytically  !
 ! D148  D(38,32,68,30)        -56.1678         calculate D2E/DX2 analytically  !
 ! D149  D(38,32,68,31)       -177.4713         calculate D2E/DX2 analytically  !
 ! D150  D(38,32,68,33)        -72.8139         calculate D2E/DX2 analytically  !
 ! D151  D(38,32,68,35)       -162.6763         calculate D2E/DX2 analytically  !
 ! D152  D(39,32,68,15)       -102.8151         calculate D2E/DX2 analytically  !
 ! D153  D(39,32,68,16)       -175.4758         calculate D2E/DX2 analytically  !
 ! D154  D(39,32,68,27)        -17.9557         calculate D2E/DX2 analytically  !
 ! D155  D(39,32,68,29)        160.7859         calculate D2E/DX2 analytically  !
 ! D156  D(39,32,68,30)        118.205          calculate D2E/DX2 analytically  !
 ! D157  D(39,32,68,31)         -3.0985         calculate D2E/DX2 analytically  !
 ! D158  D(39,32,68,33)        101.5589         calculate D2E/DX2 analytically  !
 ! D159  D(39,32,68,35)         11.6965         calculate D2E/DX2 analytically  !
 ! D160  D(1,51,53,54)          55.2261         calculate D2E/DX2 analytically  !
 ! D161  D(1,51,53,55)         -64.6683         calculate D2E/DX2 analytically  !
 ! D162  D(1,51,53,64)         174.9662         calculate D2E/DX2 analytically  !
 ! D163  D(52,51,53,54)        -60.0999         calculate D2E/DX2 analytically  !
 ! D164  D(52,51,53,55)       -179.9943         calculate D2E/DX2 analytically  !
 ! D165  D(52,51,53,64)         59.6402         calculate D2E/DX2 analytically  !
 ! D166  D(69,51,53,54)       -178.5296         calculate D2E/DX2 analytically  !
 ! D167  D(69,51,53,55)         61.5759         calculate D2E/DX2 analytically  !
 ! D168  D(69,51,53,64)        -58.7896         calculate D2E/DX2 analytically  !
 ! D169  D(1,51,69,7)         -177.2828         calculate D2E/DX2 analytically  !
 ! D170  D(1,51,69,70)         -53.5607         calculate D2E/DX2 analytically  !
 ! D171  D(1,51,69,71)          60.2175         calculate D2E/DX2 analytically  !
 ! D172  D(52,51,69,7)         -57.3466         calculate D2E/DX2 analytically  !
 ! D173  D(52,51,69,70)         66.3754         calculate D2E/DX2 analytically  !
 ! D174  D(52,51,69,71)       -179.8463         calculate D2E/DX2 analytically  !
 ! D175  D(53,51,69,7)          56.84           calculate D2E/DX2 analytically  !
 ! D176  D(53,51,69,70)       -179.4379         calculate D2E/DX2 analytically  !
 ! D177  D(53,51,69,71)        -65.6597         calculate D2E/DX2 analytically  !
 ! D178  D(51,53,64,65)        -91.2766         calculate D2E/DX2 analytically  !
 ! D179  D(51,53,64,66)         72.527          calculate D2E/DX2 analytically  !
 ! D180  D(54,53,64,65)         28.9713         calculate D2E/DX2 analytically  !
 ! D181  D(54,53,64,66)       -167.2251         calculate D2E/DX2 analytically  !
 ! D182  D(55,53,64,65)        147.337          calculate D2E/DX2 analytically  !
 ! D183  D(55,53,64,66)        -48.8595         calculate D2E/DX2 analytically  !
 ! D184  D(59,56,58,57)        179.1466         calculate D2E/DX2 analytically  !
 ! D185  D(59,56,58,61)          0.0128         calculate D2E/DX2 analytically  !
 ! D186  D(66,56,58,57)         -5.1953         calculate D2E/DX2 analytically  !
 ! D187  D(66,56,58,61)        175.6708         calculate D2E/DX2 analytically  !
 ! D188  D(58,56,66,64)         13.8805         calculate D2E/DX2 analytically  !
 ! D189  D(58,56,66,67)        157.5208         calculate D2E/DX2 analytically  !
 ! D190  D(59,56,66,64)       -170.2972         calculate D2E/DX2 analytically  !
 ! D191  D(59,56,66,67)        -26.657          calculate D2E/DX2 analytically  !
 ! D192  D(60,57,58,56)        179.3244         calculate D2E/DX2 analytically  !
 ! D193  D(60,57,58,61)         -1.5284         calculate D2E/DX2 analytically  !
 ! D194  D(65,57,58,56)         -1.8892         calculate D2E/DX2 analytically  !
 ! D195  D(65,57,58,61)        177.2581         calculate D2E/DX2 analytically  !
 ! D196  D(58,57,65,64)         -0.3724         calculate D2E/DX2 analytically  !
 ! D197  D(60,57,65,64)        178.4724         calculate D2E/DX2 analytically  !
 ! D198  D(53,64,65,57)        173.2709         calculate D2E/DX2 analytically  !
 ! D199  D(66,64,65,57)         10.7505         calculate D2E/DX2 analytically  !
 ! D200  D(53,64,66,56)       -179.3314         calculate D2E/DX2 analytically  !
 ! D201  D(53,64,66,67)         35.2472         calculate D2E/DX2 analytically  !
 ! D202  D(65,64,66,56)        -17.38           calculate D2E/DX2 analytically  !
 ! D203  D(65,64,66,67)       -162.8013         calculate D2E/DX2 analytically  !
 --------------------------------------------------------------------------------
 Trust Radius=3.00D-01 FncErr=1.00D-07 GrdErr=1.00D-06 EigMax=2.50D+02 EigMin=1.00D-04
 Number of steps in this run=    426 maximum allowed number of steps=    426.
 GradGradGradGradGradGradGradGradGradGradGradGradGradGradGradGradGradGrad

 Stoichiometry    C23H18F9N4O13S3Sc
 Framework group  C1[X(C23H18F9N4O13S3Sc)]
 Deg. of freedom   207
 Full point group                 C1      NOp   1
 Largest Abelian subgroup         C1      NOp   1
 Largest concise Abelian subgroup C1      NOp   1
                         Standard orientation:                         
 ---------------------------------------------------------------------
 Center     Atomic      Atomic             Coordinates (Angstroms)
 Number     Number       Type             X           Y           Z
 ---------------------------------------------------------------------
      1          6           0        5.621248   -0.709937    0.155836
      2          6           0        5.966699   -1.396087    1.329654
      3          6           0        7.160143   -2.118248    1.400098
      4          6           0        8.020061   -2.167176    0.301037
      5          6           0        7.683153   -1.488735   -0.872669
      6          6           0        6.491975   -0.765876   -0.942368
      7          6           0        1.748367    0.009397    0.548282
      8          6           0        1.152514    0.224029   -0.759150
      9          6           0        0.813608   -0.271912    1.622277
     10          1           0        5.308697   -1.374269    2.201625
     11          1           0        7.415666   -2.647967    2.320453
     12          1           0        8.950997   -2.735704    0.358155
     13          1           0        8.347893   -1.523956   -1.738571
     14          1           0        6.226717   -0.234226   -1.860762
     15          8           0       -0.403619    0.030284    1.604429
     16          8           0       -0.064269    0.257750   -1.024420
     17          8           0        2.018209    0.478571   -1.713121
     18          8           0        1.335174   -0.763200    2.718200
     19          6           0        1.507746    0.817331   -3.007517
     20          6           0        0.455526   -1.007060    3.824219
     21          1           0        2.376186    1.087034   -3.616851
     22          1           0        0.809656    1.662443   -2.927479
     23          1           0        0.984721   -0.043723   -3.443811
     24          1           0        1.068243   -1.472959    4.601911
     25          1           0       -0.355362   -1.680564    3.515844
     26          1           0        0.030760   -0.061279    4.185168
     27          8           0       -3.430026    0.407613    1.445841
     28          8           0       -2.878896    0.766097   -1.518186
     29          8           0       -0.420453   -2.253487    0.149962
     30         16           0       -1.156837   -2.858791   -0.989987
     31         16           0       -3.869131   -0.948436    1.905965
     32         16           0       -2.608431    2.181903   -1.101459
     33          8           0       -2.131109   -1.806961   -1.434874
     34          8           0       -1.654374   -4.204114   -0.860621
     35          8           0       -2.852072   -1.867917    1.312475
     36          8           0       -4.230563   -1.117830    3.286772
     37          8           0       -1.825431    2.067741    0.155891
     38          8           0       -2.124055    3.092397   -2.111808
     39          6           0       -4.277285    2.829930   -0.597058
     40          6           0       -5.372374   -1.256807    0.889762
     41          6           0        0.090760   -2.921906   -2.377144
     42          9           0       -4.133573    3.594961    0.468530
     43          9           0       -5.097224    1.835429   -0.323630
     44          9           0       -4.772419    3.542706   -1.591236
     45          9           0       -5.039583   -1.129397   -0.384004
     46          9           0       -6.301228   -0.374102    1.199250
     47          9           0       -5.819023   -2.476071    1.114187
     48          9           0        0.391229   -4.178499   -2.630870
     49          9           0        1.192778   -2.276455   -2.019963
     50          9           0       -0.408876   -2.356404   -3.459168
     51          6           0        4.346419    0.103005    0.031625
     52          1           0        4.178016    0.299407   -1.036310
     53          6           0        4.521509    1.535527    0.636008
     54          6           0        5.671185    2.216751    0.008290
     55          6           0        4.762184    1.472690    2.094084
     56          6           0        0.996415    2.771498    0.774797
     57          6           0        2.211923    3.603510   -1.129248
     58          6           0        1.001863    3.525577   -0.354605
     59          1           0        0.118844    2.680529    1.413748
     60          1           0        2.260369    4.188539   -2.050168
     61          1           0        0.116583    4.078585   -0.672675
     62          7           0        6.614923    2.690616   -0.462653
     63          7           0        4.936420    1.382162    3.242488
     64          7           0        3.292772    2.306983    0.373963
     65          7           0        3.308085    3.008767   -0.769251
     66          6           0        2.166856    1.991438    1.088130
     67          1           0        2.350602    1.681546    2.122142
     68         21           0       -1.790057   -0.273402    0.085562
     69          6           0        3.132787   -0.627624    0.636116
     70          1           0        3.100205   -1.621047    0.159291
     71          1           0        3.330856   -0.806397    1.702457
 ---------------------------------------------------------------------
 Rotational constants (GHZ):           0.0844276           0.0352195           0.0316820
 General basis read from cards:  (5D, 7F)
 There are   934 symmetry adapted cartesian basis functions of A   symmetry.
 There are   875 symmetry adapted basis functions of A   symmetry.
   875 basis functions,  1564 primitive gaussians,   934 cartesian basis functions
   219 alpha electrons      219 beta electrons
       nuclear repulsion energy     10643.4154245003 Hartrees.
 NAtoms=   71 NActive=   71 NUniq=   71 SFac= 1.00D+00 NAtFMM=   60 NAOKFM=T Big=T
 Integral buffers will be    131072 words long.
 Raffenetti 2 integral format.
 Two-electron integral symmetry is turned on.
 Force inversion solution in PCM.
 ------------------------------------------------------------------------------
 Polarizable Continuum Model (PCM)
 =================================
 Model                : PCM.
 Atomic radii         : SMD-Coulomb.
 Polarization charges : Total charges.
 Charge compensation  : None.
 Solution method      : Matrix inversion.
 Cavity type          : VdW (van der Waals Surface) (Alpha=1.000).
 Cavity algorithm     : GePol (No added spheres)
                        Default sphere list used, NSphG=   71.
                        Lebedev-Laikov grids with approx.  5.0 points / Ang**2.
                        Smoothing algorithm: York/Karplus (Gamma=1.0000).
                        Polarization charges: spherical gaussians, with
                                              point-specific exponents (IZeta= 3).
                        Self-potential: point-specific (ISelfS= 7).
                        Self-field    : sphere-specific E.n sum rule (ISelfD= 2).
 1st derivatives      : Analytical E(r).r(x)/FMM algorithm (CHGder, D1EAlg=3).
                        Cavity 1st derivative terms included.
 2nd derivatives      : Analytical E(r).r(xy)/FMM algorithm (CHGder, D2EAlg=3).
                        Cavity 2nd derivative terms included.
 Solvent              : DiChloroEthane, Eps=  10.125000 Eps(inf)=   2.087447
 ------------------------------------------------------------------------------
 ------------------------------------------------------------------------------
 Atomic radii for non-electrostatic terms: SMD-CDS.
 ------------------------------------------------------------------------------
 Nuclear repulsion after PCM non-electrostatic terms =    10643.4213854155 Hartrees.
 One-electron integrals computed using PRISM.
 NBasis=   875 RedAO= T EigKep=  2.19D-04  NBF=   875
 NBsUse=   875 1.00D-06 EigRej= -1.00D+00 NBFU=   875
 ExpMin= 3.01D-02 ExpMax= 1.92D+05 ExpMxC= 1.85D+03 IAcc=3 IRadAn=         5 AccDes= 0.00D+00
 Harris functional with IExCor= 1009 and IRadAn=       5 diagonalized for initial guess.
 HarFok:  IExCor= 1009 AccDes= 0.00D+00 IRadAn=         5 IDoV= 1 UseB2=F ITyADJ=14
 ICtDFT=  3500011 ScaDFX=  1.000000  1.000000  1.000000  1.000000
 FoFCou: FMM=F IPFlag=           0 FMFlag=      100000 FMFlg1=        2001
         NFxFlg=           0 DoJE=T BraDBF=F KetDBF=T FulRan=T
         wScrn=  0.000000 ICntrl=       500 IOpCl=  0 I1Cent=   200000004 NGrid=           0
         NMat0=    1 NMatS0=      1 NMatT0=    0 NMatD0=    1 NMtDS0=    0 NMtDT0=    0
 Petite list used in FoFCou.
 Requested convergence on RMS density matrix=1.00D-08 within 500 cycles.
 Requested convergence on MAX density matrix=1.00D-06.
 Requested convergence on             energy=1.00D-06.
 No special actions if energy rises.
 Inv3:  Mode=1 IEnd=    70596603.
 Iteration    1 A*A^-1 deviation from unit magnitude is 6.22D-15 for   4820.
 Iteration    1 A*A^-1 deviation from orthogonality  is 4.58D-15 for   4839   3670.
 Iteration    1 A^-1*A deviation from unit magnitude is 6.00D-15 for   4820.
 Iteration    1 A^-1*A deviation from orthogonality  is 1.06D-12 for   4847   4833.
 Error on total polarization charges =  0.03240
 SCF Done:  E(RMN15) =  -4931.92578541     A.U. after   15 cycles
            NFock= 15  Conv=0.47D-08     -V/T= 2.0065
 SMD-CDS (non-electrostatic) energy       (kcal/mol) =       3.74
 (included in total energy above)
 DoSCS=F DFT=T ScalE2(SS,OS)=  1.000000  1.000000
 Range of M.O.s used for correlation:     1   875
 NBasis=   875 NAE=   219 NBE=   219 NFC=     0 NFV=     0
 NROrb=    875 NOA=   219 NOB=   219 NVA=   656 NVB=   656

 **** Warning!!: The largest alpha MO coefficient is  0.12846888D+02

 Symmetrizing basis deriv contribution to polar:
 IMax=3 JMax=2 DiffMx= 0.00D+00
 G2DrvN: will do    72 centers at a time, making    1 passes.
 Calling FoFCou, ICntrl=  3107 FMM=T I1Cent=   0 AccDes= 0.00D+00.
 NEqPCM:  Using equilibrium solvation (IEInf=0, Eps=  10.1250, EpsInf=   2.0874)
 G2PCM: DoFxE=T DoFxN=T DoGrad=T DoDP/DQ/DG/TGxP=FFFF NFrqRd=   0 IEInf=0 SqF1=F DoCFld=F IF1Alg=4.
 End of G2Drv F.D. properties file   721 does not exist.
 End of G2Drv F.D. properties file   722 does not exist.
 End of G2Drv F.D. properties file   788 does not exist.
          IDoAtm=11111111111111111111111111111111111111111111111111
          IDoAtm=111111111111111111111
 NEqPCM:  Using equilibrium solvation (IEInf=0, Eps=  10.1250, EpsInf=   2.0874)
          Differentiating once with respect to nuclear coordinates.
 CalDSu exits because no D1Ps are significant.
          There are   216 degrees of freedom in the 1st order CPHF.  IDoFFX=6 NUNeed=     0.
    213 vectors produced by pass  0 Test12= 1.44D-13 1.00D-09 XBig12= 1.75D-01 1.63D-01.
 AX will form    72 AO Fock derivatives at one time.
    210 vectors produced by pass  1 Test12= 1.44D-13 1.00D-09 XBig12= 6.99D-02 2.98D-02.
    210 vectors produced by pass  2 Test12= 1.44D-13 1.00D-09 XBig12= 9.88D-04 2.97D-03.
    210 vectors produced by pass  3 Test12= 1.44D-13 1.00D-09 XBig12= 1.25D-05 2.85D-04.
    210 vectors produced by pass  4 Test12= 1.44D-13 1.00D-09 XBig12= 1.27D-07 2.52D-05.
    210 vectors produced by pass  5 Test12= 1.44D-13 1.00D-09 XBig12= 6.93D-10 1.70D-06.
    175 vectors produced by pass  6 Test12= 1.44D-13 1.00D-09 XBig12= 2.83D-12 1.19D-07.
     48 vectors produced by pass  7 Test12= 1.44D-13 1.00D-09 XBig12= 1.08D-14 9.24D-09.
      2 vectors produced by pass  8 Test12= 1.44D-13 1.00D-09 XBig12= 9.61D-16 1.24D-09.
 InvSVY:  IOpt=1 It=  1 EMax= 6.38D-16
 Solved reduced A of dimension  1488 with   216 vectors.
 End of Minotr F.D. properties file   721 does not exist.
 End of Minotr F.D. properties file   722 does not exist.
 End of Minotr F.D. properties file   788 does not exist.

 **********************************************************************

            Population analysis using the SCF density.

 **********************************************************************

 Orbital symmetries:
       Occupied  (A) (A) (A) (A) (A) (A) (A) (A) (A) (A) (A) (A)
                 (A) (A) (A) (A) (A) (A) (A) (A) (A) (A) (A) (A)
                 (A) (A) (A) (A) (A) (A) (A) (A) (A) (A) (A) (A)
                 (A) (A) (A) (A) (A) (A) (A) (A) (A) (A) (A) (A)
                 (A) (A) (A) (A) (A) (A) (A) (A) (A) (A) (A) (A)
                 (A) (A) (A) (A) (A) (A) (A) (A) (A) (A) (A) (A)
                 (A) (A) (A) (A) (A) (A) (A) (A) (A) (A) (A) (A)
                 (A) (A) (A) (A) (A) (A) (A) (A) (A) (A) (A) (A)
                 (A) (A) (A) (A) (A) (A) (A) (A) (A) (A) (A) (A)
                 (A) (A) (A) (A) (A) (A) (A) (A) (A) (A) (A) (A)
                 (A) (A) (A) (A) (A) (A) (A) (A) (A) (A) (A) (A)
                 (A) (A) (A) (A) (A) (A) (A) (A) (A) (A) (A) (A)
                 (A) (A) (A) (A) (A) (A) (A) (A) (A) (A) (A) (A)
                 (A) (A) (A) (A) (A) (A) (A) (A) (A) (A) (A) (A)
                 (A) (A) (A) (A) (A) (A) (A) (A) (A) (A) (A) (A)
                 (A) (A) (A) (A) (A) (A) (A) (A) (A) (A) (A) (A)
                 (A) (A) (A) (A) (A) (A) (A) (A) (A) (A) (A) (A)
                 (A) (A) (A) (A) (A) (A) (A) (A) (A) (A) (A) (A)
                 (A) (A) (A)
       Virtual   (A) (A) (A) (A) (A) (A) (A) (A) (A) (A) (A) (A)
                 (A) (A) (A) (A) (A) (A) (A) (A) (A) (A) (A) (A)
                 (A) (A) (A) (A) (A) (A) (A) (A) (A) (A) (A) (A)
                 (A) (A) (A) (A) (A) (A) (A) (A) (A) (A) (A) (A)
                 (A) (A) (A) (A) (A) (A) (A) (A) (A) (A) (A) (A)
                 (A) (A) (A) (A) (A) (A) (A) (A) (A) (A) (A) (A)
                 (A) (A) (A) (A) (A) (A) (A) (A) (A) (A) (A) (A)
                 (A) (A) (A) (A) (A) (A) (A) (A) (A) (A) (A) (A)
                 (A) (A) (A) (A) (A) (A) (A) (A) (A) (A) (A) (A)
                 (A) (A) (A) (A) (A) (A) (A) (A) (A) (A) (A) (A)
                 (A) (A) (A) (A) (A) (A) (A) (A) (A) (A) (A) (A)
                 (A) (A) (A) (A) (A) (A) (A) (A) (A) (A) (A) (A)
                 (A) (A) (A) (A) (A) (A) (A) (A) (A) (A) (A) (A)
                 (A) (A) (A) (A) (A) (A) (A) (A) (A) (A) (A) (A)
                 (A) (A) (A) (A) (A) (A) (A) (A) (A) (A) (A) (A)
                 (A) (A) (A) (A) (A) (A) (A) (A) (A) (A) (A) (A)
                 (A) (A) (A) (A) (A) (A) (A) (A) (A) (A) (A) (A)
                 (A) (A) (A) (A) (A) (A) (A) (A) (A) (A) (A) (A)
                 (A) (A) (A) (A) (A) (A) (A) (A) (A) (A) (A) (A)
                 (A) (A) (A) (A) (A) (A) (A) (A) (A) (A) (A) (A)
                 (A) (A) (A) (A) (A) (A) (A) (A) (A) (A) (A) (A)
                 (A) (A) (A) (A) (A) (A) (A) (A) (A) (A) (A) (A)
                 (A) (A) (A) (A) (A) (A) (A) (A) (A) (A) (A) (A)
                 (A) (A) (A) (A) (A) (A) (A) (A) (A) (A) (A) (A)
                 (A) (A) (A) (A) (A) (A) (A) (A) (A) (A) (A) (A)
                 (A) (A) (A) (A) (A) (A) (A) (A) (A) (A) (A) (A)
                 (A) (A) (A) (A) (A) (A) (A) (A) (A) (A) (A) (A)
                 (A) (A) (A) (A) (A) (A) (A) (A) (A) (A) (A) (A)
                 (A) (A) (A) (A) (A) (A) (A) (A) (A) (A) (A) (A)
                 (A) (A) (A) (A) (A) (A) (A) (A) (A) (A) (A) (A)
                 (A) (A) (A) (A) (A) (A) (A) (A) (A) (A) (A) (A)
                 (A) (A) (A) (A) (A) (A) (A) (A) (A) (A) (A) (A)
                 (A) (A) (A) (A) (A) (A) (A) (A) (A) (A) (A) (A)
                 (A) (A) (A) (A) (A) (A) (A) (A) (A) (A) (A) (A)
                 (A) (A) (A) (A) (A) (A) (A) (A) (A) (A) (A) (A)
                 (A) (A) (A) (A) (A) (A) (A) (A) (A) (A) (A) (A)
                 (A) (A) (A) (A) (A) (A) (A) (A) (A) (A) (A) (A)
                 (A) (A) (A) (A) (A) (A) (A) (A) (A) (A) (A) (A)
                 (A) (A) (A) (A) (A) (A) (A) (A) (A) (A) (A) (A)
                 (A) (A) (A) (A) (A) (A) (A) (A) (A) (A) (A) (A)
                 (A) (A) (A) (A) (A) (A) (A) (A) (A) (A) (A) (A)
                 (A) (A) (A) (A) (A) (A) (A) (A) (A) (A) (A) (A)
                 (A) (A) (A) (A) (A) (A) (A) (A) (A) (A) (A) (A)
                 (A) (A) (A) (A) (A) (A) (A) (A) (A) (A) (A) (A)
                 (A) (A) (A) (A) (A) (A) (A) (A) (A) (A) (A) (A)
                 (A) (A) (A) (A) (A) (A) (A) (A) (A) (A) (A) (A)
                 (A) (A) (A) (A) (A) (A) (A) (A) (A) (A) (A) (A)
                 (A) (A) (A) (A) (A) (A) (A) (A) (A) (A) (A) (A)
                 (A) (A) (A) (A) (A) (A) (A) (A) (A) (A) (A) (A)
                 (A) (A) (A) (A) (A) (A) (A) (A) (A) (A) (A) (A)
                 (A) (A) (A) (A) (A) (A) (A) (A) (A) (A) (A) (A)
                 (A) (A) (A) (A) (A) (A) (A) (A) (A) (A) (A) (A)
                 (A) (A) (A) (A) (A) (A) (A) (A) (A) (A) (A) (A)
                 (A) (A) (A) (A) (A) (A) (A) (A) (A) (A) (A) (A)
                 (A) (A) (A) (A) (A) (A) (A) (A)
 The electronic state is 1-A.
 Alpha  occ. eigenvalues -- -160.21272 -88.06471 -88.05831 -88.05813 -24.34509
 Alpha  occ. eigenvalues --  -24.34417 -24.34257 -24.34244 -24.34199 -24.34028
 Alpha  occ. eigenvalues --  -24.33826 -24.33784 -24.33731 -18.89638 -18.89543
 Alpha  occ. eigenvalues --  -18.85730 -18.85190 -18.85056 -18.84998 -18.84480
 Alpha  occ. eigenvalues --  -18.84332 -18.84149 -18.83902 -18.83887 -18.83446
 Alpha  occ. eigenvalues --  -18.83132 -17.19841 -14.49973 -14.49965 -14.49910
 Alpha  occ. eigenvalues --  -14.23845 -14.18204 -14.14909 -14.13803 -10.33798
 Alpha  occ. eigenvalues --  -10.33540 -10.33386 -10.23137 -10.22981 -10.21212
 Alpha  occ. eigenvalues --  -10.17740 -10.13972 -10.13210 -10.12469 -10.11706
 Alpha  occ. eigenvalues --  -10.11447 -10.10610 -10.10394 -10.10147 -10.10021
 Alpha  occ. eigenvalues --  -10.08602 -10.07612 -10.06385 -10.06273 -10.05990
 Alpha  occ. eigenvalues --  -10.05961 -10.05934  -7.96309  -7.95653  -7.95589
 Alpha  occ. eigenvalues --   -6.15822  -6.15780  -6.15650  -6.15174  -6.15122
 Alpha  occ. eigenvalues --   -6.15109  -6.15054  -6.15004  -6.14960  -2.16090
 Alpha  occ. eigenvalues --   -1.40714  -1.40552  -1.40382  -1.38089  -1.38006
 Alpha  occ. eigenvalues --   -1.37638  -1.28089  -1.28075  -1.27964  -1.27920
 Alpha  occ. eigenvalues --   -1.27606  -1.27516  -1.20883  -1.20055  -1.19760
 Alpha  occ. eigenvalues --   -1.18629  -1.17961  -1.13657  -1.08740  -1.07961
 Alpha  occ. eigenvalues --   -1.07348  -1.06947  -1.06751  -1.05695  -1.05058
 Alpha  occ. eigenvalues --   -1.04911  -0.99387  -0.96763  -0.95308  -0.91277
 Alpha  occ. eigenvalues --   -0.90594  -0.88224  -0.86192  -0.81491  -0.80488
 Alpha  occ. eigenvalues --   -0.80434  -0.79795  -0.79677  -0.78566  -0.77521
 Alpha  occ. eigenvalues --   -0.75636  -0.74843  -0.73032  -0.72440  -0.72136
 Alpha  occ. eigenvalues --   -0.71869  -0.69451  -0.68067  -0.68038  -0.67969
 Alpha  occ. eigenvalues --   -0.67830  -0.67558  -0.67467  -0.65993  -0.64838
 Alpha  occ. eigenvalues --   -0.64711  -0.63769  -0.63645  -0.63292  -0.62944
 Alpha  occ. eigenvalues --   -0.62585  -0.61726  -0.60882  -0.59736  -0.59498
 Alpha  occ. eigenvalues --   -0.58420  -0.57940  -0.57811  -0.57264  -0.57125
 Alpha  occ. eigenvalues --   -0.56694  -0.56163  -0.56104  -0.55631  -0.55392
 Alpha  occ. eigenvalues --   -0.55374  -0.55231  -0.55096  -0.54768  -0.54622
 Alpha  occ. eigenvalues --   -0.54515  -0.54121  -0.53986  -0.53776  -0.53525
 Alpha  occ. eigenvalues --   -0.53239  -0.53100  -0.52219  -0.52131  -0.51981
 Alpha  occ. eigenvalues --   -0.51798  -0.51767  -0.51427  -0.51419  -0.51066
 Alpha  occ. eigenvalues --   -0.50576  -0.49346  -0.49320  -0.48871  -0.48846
 Alpha  occ. eigenvalues --   -0.48613  -0.48455  -0.48305  -0.47804  -0.47264
 Alpha  occ. eigenvalues --   -0.46487  -0.46206  -0.45972  -0.45830  -0.45381
 Alpha  occ. eigenvalues --   -0.45345  -0.44962  -0.44532  -0.44249  -0.43394
 Alpha  occ. eigenvalues --   -0.43339  -0.42958  -0.42723  -0.42329  -0.42261
 Alpha  occ. eigenvalues --   -0.41813  -0.41496  -0.41119  -0.40874  -0.40828
 Alpha  occ. eigenvalues --   -0.40472  -0.40343  -0.40111  -0.39753  -0.39456
 Alpha  occ. eigenvalues --   -0.39328  -0.39064  -0.38799  -0.38647  -0.38606
 Alpha  occ. eigenvalues --   -0.38290  -0.37998  -0.37806  -0.37430  -0.37027
 Alpha  occ. eigenvalues --   -0.36971  -0.36923  -0.36646  -0.36298  -0.35876
 Alpha  occ. eigenvalues --   -0.35614  -0.29616  -0.29540  -0.26638
 Alpha virt. eigenvalues --   -0.07144  -0.04219  -0.02831  -0.01877  -0.01539
 Alpha virt. eigenvalues --    0.00186   0.00220   0.00621   0.01066   0.01155
 Alpha virt. eigenvalues --    0.01856   0.04610   0.04836   0.06392   0.06908
 Alpha virt. eigenvalues --    0.07215   0.08229   0.08983   0.09031   0.09222
 Alpha virt. eigenvalues --    0.09304   0.09735   0.09815   0.10031   0.10402
 Alpha virt. eigenvalues --    0.10594   0.10913   0.11227   0.11589   0.12402
 Alpha virt. eigenvalues --    0.12568   0.13216   0.13286   0.13741   0.13932
 Alpha virt. eigenvalues --    0.14516   0.14765   0.15304   0.15798   0.16049
 Alpha virt. eigenvalues --    0.16641   0.16926   0.17111   0.17468   0.17585
 Alpha virt. eigenvalues --    0.17859   0.18610   0.18899   0.19538   0.19617
 Alpha virt. eigenvalues --    0.20106   0.20197   0.20395   0.21519   0.21684
 Alpha virt. eigenvalues --    0.22469   0.22678   0.22907   0.23127   0.24225
 Alpha virt. eigenvalues --    0.24369   0.24507   0.25080   0.25311   0.25414
 Alpha virt. eigenvalues --    0.25479   0.25752   0.26181   0.26360   0.26805
 Alpha virt. eigenvalues --    0.27029   0.27587   0.28240   0.28250   0.28659
 Alpha virt. eigenvalues --    0.29357   0.29683   0.29998   0.30235   0.31948
 Alpha virt. eigenvalues --    0.32284   0.32840   0.33128   0.33818   0.34563
 Alpha virt. eigenvalues --    0.35626   0.35711   0.36301   0.37701   0.39000
 Alpha virt. eigenvalues --    0.39410   0.39873   0.40271   0.40882   0.41443
 Alpha virt. eigenvalues --    0.42129   0.42467   0.42722   0.43129   0.43455
 Alpha virt. eigenvalues --    0.43730   0.44292   0.44685   0.44864   0.45544
 Alpha virt. eigenvalues --    0.46076   0.46804   0.46967   0.47325   0.47705
 Alpha virt. eigenvalues --    0.47880   0.48275   0.48517   0.48832   0.48973
 Alpha virt. eigenvalues --    0.49239   0.49804   0.49884   0.50284   0.50549
 Alpha virt. eigenvalues --    0.51166   0.51325   0.51799   0.52133   0.52493
 Alpha virt. eigenvalues --    0.52795   0.53264   0.53553   0.53939   0.54733
 Alpha virt. eigenvalues --    0.54871   0.55094   0.55602   0.55961   0.56917
 Alpha virt. eigenvalues --    0.57361   0.57551   0.58474   0.58936   0.59044
 Alpha virt. eigenvalues --    0.59527   0.60118   0.60468   0.61081   0.61538
 Alpha virt. eigenvalues --    0.62236   0.62590   0.63070   0.63348   0.64055
 Alpha virt. eigenvalues --    0.64197   0.64540   0.65394   0.65686   0.66180
 Alpha virt. eigenvalues --    0.66360   0.66714   0.67028   0.67127   0.67474
 Alpha virt. eigenvalues --    0.67628   0.67950   0.68074   0.68251   0.68655
 Alpha virt. eigenvalues --    0.69180   0.69479   0.69662   0.69875   0.70001
 Alpha virt. eigenvalues --    0.70315   0.70581   0.70778   0.70944   0.71090
 Alpha virt. eigenvalues --    0.71407   0.71864   0.72672   0.72762   0.73008
 Alpha virt. eigenvalues --    0.73462   0.73741   0.74221   0.74546   0.74823
 Alpha virt. eigenvalues --    0.75635   0.75825   0.76266   0.76593   0.76911
 Alpha virt. eigenvalues --    0.77812   0.78124   0.78468   0.78722   0.79024
 Alpha virt. eigenvalues --    0.79520   0.79840   0.80448   0.80583   0.82042
 Alpha virt. eigenvalues --    0.82773   0.83333   0.84662   0.85076   0.85678
 Alpha virt. eigenvalues --    0.86324   0.86873   0.87351   0.87655   0.87998
 Alpha virt. eigenvalues --    0.88289   0.88592   0.89596   0.90063   0.90553
 Alpha virt. eigenvalues --    0.90790   0.91744   0.92408   0.92444   0.93105
 Alpha virt. eigenvalues --    0.93454   0.93878   0.94265   0.94788   0.95151
 Alpha virt. eigenvalues --    0.95917   0.96918   0.97287   0.97502   0.98040
 Alpha virt. eigenvalues --    0.98936   0.99227   0.99755   1.00113   1.01712
 Alpha virt. eigenvalues --    1.01833   1.02049   1.02838   1.03242   1.03822
 Alpha virt. eigenvalues --    1.04536   1.04798   1.05504   1.06228   1.07045
 Alpha virt. eigenvalues --    1.07091   1.07632   1.07769   1.08332   1.08537
 Alpha virt. eigenvalues --    1.09508   1.09885   1.09911   1.10532   1.11485
 Alpha virt. eigenvalues --    1.11726   1.12557   1.13188   1.13315   1.13399
 Alpha virt. eigenvalues --    1.13594   1.14899   1.15403   1.15708   1.15950
 Alpha virt. eigenvalues --    1.16450   1.16693   1.17296   1.17359   1.18026
 Alpha virt. eigenvalues --    1.18303   1.19091   1.19288   1.19674   1.20142
 Alpha virt. eigenvalues --    1.20733   1.20878   1.21387   1.21829   1.22167
 Alpha virt. eigenvalues --    1.22416   1.22868   1.23689   1.23966   1.24191
 Alpha virt. eigenvalues --    1.24459   1.25065   1.25580   1.26077   1.26162
 Alpha virt. eigenvalues --    1.26475   1.27242   1.28317   1.28520   1.29261
 Alpha virt. eigenvalues --    1.29323   1.30080   1.30328   1.31238   1.31509
 Alpha virt. eigenvalues --    1.31929   1.32252   1.32549   1.33078   1.33667
 Alpha virt. eigenvalues --    1.34087   1.34547   1.34819   1.35361   1.35608
 Alpha virt. eigenvalues --    1.36471   1.36729   1.37461   1.38100   1.38211
 Alpha virt. eigenvalues --    1.39020   1.40031   1.40263   1.40387   1.40554
 Alpha virt. eigenvalues --    1.41258   1.41525   1.42271   1.42480   1.43576
 Alpha virt. eigenvalues --    1.43719   1.44532   1.44766   1.45354   1.46646
 Alpha virt. eigenvalues --    1.47143   1.47349   1.47938   1.48521   1.48839
 Alpha virt. eigenvalues --    1.49109   1.50000   1.50752   1.51136   1.51702
 Alpha virt. eigenvalues --    1.52901   1.53235   1.53535   1.53796   1.54337
 Alpha virt. eigenvalues --    1.54744   1.55403   1.55642   1.56245   1.56664
 Alpha virt. eigenvalues --    1.57690   1.58606   1.59143   1.59469   1.59940
 Alpha virt. eigenvalues --    1.61001   1.61159   1.61642   1.61948   1.62384
 Alpha virt. eigenvalues --    1.63289   1.63660   1.65219   1.65685   1.66549
 Alpha virt. eigenvalues --    1.66799   1.67089   1.67735   1.68113   1.68426
 Alpha virt. eigenvalues --    1.68591   1.69228   1.70237   1.70548   1.71292
 Alpha virt. eigenvalues --    1.71812   1.71966   1.72170   1.72590   1.73227
 Alpha virt. eigenvalues --    1.73532   1.74214   1.74664   1.74963   1.75142
 Alpha virt. eigenvalues --    1.75532   1.75904   1.76281   1.76610   1.76927
 Alpha virt. eigenvalues --    1.77678   1.77726   1.78508   1.79211   1.79825
 Alpha virt. eigenvalues --    1.80815   1.81761   1.82171   1.83065   1.83659
 Alpha virt. eigenvalues --    1.83994   1.84041   1.85008   1.85309   1.85729
 Alpha virt. eigenvalues --    1.86057   1.86439   1.86937   1.87139   1.87595
 Alpha virt. eigenvalues --    1.88495   1.88769   1.89141   1.89446   1.89964
 Alpha virt. eigenvalues --    1.90354   1.90993   1.91174   1.91566   1.91879
 Alpha virt. eigenvalues --    1.92562   1.92922   1.93052   1.93727   1.93935
 Alpha virt. eigenvalues --    1.94747   1.95091   1.95341   1.95740   1.96419
 Alpha virt. eigenvalues --    1.96870   1.97004   1.97204   1.98512   1.98834
 Alpha virt. eigenvalues --    1.99132   1.99364   1.99694   1.99819   2.00919
 Alpha virt. eigenvalues --    2.01014   2.01797   2.02294   2.03134   2.03214
 Alpha virt. eigenvalues --    2.03493   2.05472   2.05849   2.06168   2.07381
 Alpha virt. eigenvalues --    2.08475   2.08583   2.08879   2.09644   2.10176
 Alpha virt. eigenvalues --    2.10741   2.11865   2.12494   2.13114   2.13915
 Alpha virt. eigenvalues --    2.14112   2.14834   2.15708   2.17478   2.18201
 Alpha virt. eigenvalues --    2.18810   2.19793   2.21125   2.21476   2.22368
 Alpha virt. eigenvalues --    2.22959   2.23269   2.23819   2.24158   2.24660
 Alpha virt. eigenvalues --    2.25187   2.26696   2.27348   2.28417   2.28959
 Alpha virt. eigenvalues --    2.29529   2.30706   2.31209   2.31564   2.32977
 Alpha virt. eigenvalues --    2.33861   2.34307   2.35588   2.36188   2.37395
 Alpha virt. eigenvalues --    2.38298   2.40091   2.41737   2.42380   2.43173
 Alpha virt. eigenvalues --    2.44807   2.45641   2.48415   2.52023   2.53026
 Alpha virt. eigenvalues --    2.53936   2.55177   2.56162   2.56227   2.57132
 Alpha virt. eigenvalues --    2.57842   2.58169   2.59322   2.59844   2.60144
 Alpha virt. eigenvalues --    2.60704   2.61086   2.61515   2.62084   2.62539
 Alpha virt. eigenvalues --    2.62863   2.62897   2.63619   2.64297   2.64750
 Alpha virt. eigenvalues --    2.64929   2.66002   2.66448   2.66526   2.67183
 Alpha virt. eigenvalues --    2.67943   2.68502   2.69029   2.69108   2.70343
 Alpha virt. eigenvalues --    2.70594   2.71142   2.71935   2.72443   2.73298
 Alpha virt. eigenvalues --    2.73910   2.74833   2.76448   2.77373   2.77662
 Alpha virt. eigenvalues --    2.78114   2.78422   2.79028   2.79389   2.79798
 Alpha virt. eigenvalues --    2.79839   2.80383   2.81084   2.81563   2.81674
 Alpha virt. eigenvalues --    2.82615   2.83166   2.83569   2.83810   2.84360
 Alpha virt. eigenvalues --    2.85494   2.86011   2.86611   2.86704   2.87669
 Alpha virt. eigenvalues --    2.90158   2.90877   2.91676   2.92295   2.92875
 Alpha virt. eigenvalues --    2.93063   2.93343   2.94256   2.94890   2.95416
 Alpha virt. eigenvalues --    2.96022   2.96436   2.97081   2.97290   2.97991
 Alpha virt. eigenvalues --    2.98211   2.98469   2.98717   2.99243   2.99441
 Alpha virt. eigenvalues --    3.00451   3.00603   3.01372   3.01993   3.02429
 Alpha virt. eigenvalues --    3.02607   3.02756   3.02773   3.02807   3.02888
 Alpha virt. eigenvalues --    3.02970   3.03024   3.03153   3.03396   3.03468
 Alpha virt. eigenvalues --    3.03812   3.03916   3.04157   3.04564   3.04776
 Alpha virt. eigenvalues --    3.05302   3.05624   3.05783   3.07161   3.07776
 Alpha virt. eigenvalues --    3.08546   3.12322   3.12719   3.13787   3.14808
 Alpha virt. eigenvalues --    3.15098   3.15539   3.15716   3.15992   3.16113
 Alpha virt. eigenvalues --    3.16359   3.18942   3.20736   3.21700   3.22538
 Alpha virt. eigenvalues --    3.22975   3.32269   3.34331   3.34584   3.35264
 Alpha virt. eigenvalues --    3.37034   3.37275   3.37533   3.37663   3.38253
 Alpha virt. eigenvalues --    3.38649   3.39292   3.39815   3.43104   3.43875
 Alpha virt. eigenvalues --    3.51092   3.51383   3.51959   3.52014   3.52449
 Alpha virt. eigenvalues --    3.52898   3.53176   3.53793   3.54412   3.55827
 Alpha virt. eigenvalues --    3.62265   3.66225   3.67031   3.67436   3.68296
 Alpha virt. eigenvalues --    3.80650   3.81439   3.82508   3.82783   3.82945
 Alpha virt. eigenvalues --    3.83797
          Condensed to atoms (all electrons):
 Mulliken charges:
               1
     1  C   -0.001028
     2  C   -0.009342
     3  C   -0.000288
     4  C    0.013380
     5  C    0.003170
     6  C   -0.005469
     7  C   -0.293493
     8  C    0.268062
     9  C    0.319141
    10  H    0.003630
    11  H    0.011504
    12  H    0.014632
    13  H    0.012232
    14  H    0.002944
    15  O   -0.296867
    16  O   -0.253145
    17  O   -0.254560
    18  O   -0.247557
    19  C    0.170506
    20  C    0.158459
    21  H    0.069404
    22  H    0.054079
    23  H    0.059300
    24  H    0.070235
    25  H    0.072450
    26  H    0.069069
    27  O   -0.428650
    28  O   -0.437825
    29  O   -0.437400
    30  S    0.892713
    31  S    0.864697
    32  S    0.869284
    33  O   -0.441506
    34  O   -0.398451
    35  O   -0.425293
    36  O   -0.387493
    37  O   -0.433325
    38  O   -0.407015
    39  C    0.438744
    40  C    0.448134
    41  C    0.426544
    42  F   -0.123921
    43  F   -0.111119
    44  F   -0.124470
    45  F   -0.104576
    46  F   -0.119183
    47  F   -0.119160
    48  F   -0.117878
    49  F   -0.124198
    50  F   -0.116177
    51  C    0.059982
    52  H    0.036013
    53  C   -0.105514
    54  C   -0.161877
    55  C   -0.180899
    56  C    0.076111
    57  C    0.026147
    58  C    0.032998
    59  H    0.072934
    60  H    0.071033
    61  H    0.047735
    62  N    0.143326
    63  N    0.118261
    64  N   -0.127707
    65  N    0.002388
    66  C    0.148168
    67  H    0.085372
    68  Sc   0.258948
    69  C    0.205447
    70  H    0.062575
    71  H    0.035637
 Sum of Mulliken charges =  -0.00000
 Mulliken charges with hydrogens summed into heavy atoms:
[...]
 602,-0.00266675,0.00273658,0.00100764,-0.00626410,-0.00043305,0.001197
 50,0.00078912,-0.00049555,0.00041454,-0.00301745,-0.00003477,0.0002395
 1,-0.00022922,-0.00021865,-0.00001848,0.00029705,-0.00003636,0.0000255
 5,0.00004600,0.00000117,0.00007344,0.00016182,-0.00007086,-0.00003784,
 0.00003042,0.00004107,0.00001253,0.00003231,0.00000874,0.00004412,-0.0
 0004753,0.00002099,-0.00002016,0.00006828,-0.00015850,-0.00002552,0.00
 002395,0.00008139,-0.00003301,0.00009876,-0.00005002,-0.00006415,0.000
 19706,0.00010330,-0.00004984,-0.00019173,0.00025038,0.00003917,0.00012
 226,-0.00000743,0.00012894,-0.00015892,0.00002050,0.00004636,0.0001219
 0,-0.00002423,0.00000066,0.00003401,-0.00019862,-0.00006956,0.00001600
 ,-0.00004262,-0.00000958,-0.00004240,-0.00007950,0.00005888,0.00012727
 ,-0.00000256,-0.00000234,0.00005029,0.00001239,-0.00003939,-0.00000667
 ,0.00007109,0.00002960,-0.00005583,-0.00002172,-0.00014688,-0.00008082
 ,0.00000118,-0.00000063,0.00001156,-0.00000680,-0.00000058,0.00000215,
 -0.00000698,0.00001101,0.00000730,-0.00001466,-0.00000254,0.00002329,-
 0.00003890,0.00001041,0.00001021,-0.00002740,-0.00002866,0.00000833,0.
 00000396,0.00000931,0.00001708,0.00012073,0.00001770,-0.00010651,0.000
 00846,0.00005713,0.00003648,-0.03346090,-0.02776950,-0.09799832,-0.025
 02325,-0.01480729,-0.00995151,0.01303334,0.00677472,0.00514817,-0.0010
 1263,0.00375365,-0.00189865,0.00135645,0.00277628,0.00078223,0.0008911
 7,0.00066764,-0.00046569,0.00015078,0.00000196,-0.00028162,-0.00038456
 ,0.00020665,0.00007099,-0.00003048,-0.00011188,0.00001142,0.00000027,0
 .00001821,0.00002462,-0.00002298,-0.00012803,0.00008657,0.00116785,-0.
 00035163,0.00099525,-0.00034810,-0.00020473,0.00018877,-0.00109930,-0.
 00225920,-0.00071027,-0.00011833,0.00003056,0.00042158,-0.00337700,0.0
 0423612,0.00152923,0.00067424,-0.00032161,-0.00091801,0.00012716,-0.00
 010984,-0.00207429,-0.01653758,-0.03247523,0.59553910,0.00065329,-0.00
 125041,0.00060996,0.00027154,0.00019571,0.00002875,-0.00000932,0.00013
 586,-0.00002103,0.00002873,-0.00004065,0.00006771,0.00002533,-0.000018
 12,-0.00006598,0.00007460,0.00002862,-0.00015257,-0.00602625,0.0268706
 1,-0.01120779,0.00131974,0.00049725,-0.00286153,0.00140523,0.00233509,
 0.00218914,0.00006225,-0.00010874,0.00003562,-0.00001190,-0.00001122,-
 0.00000013,-0.00000374,-0.00001341,0.00000502,0.00000408,-0.00000619,0
 .00000616,-0.00000460,-0.00003290,0.00001257,-0.00201686,-0.00074910,0
 .00022448,-0.00126354,-0.00027319,0.00018486,0.00065544,-0.00002457,0.
 00054780,0.00057634,-0.00037385,-0.00070083,0.00005996,0.00002579,-0.0
 0009297,0.00010377,0.00004054,0.00008426,-0.00000170,0.00000522,0.0000
 1964,0.00000976,-0.00001105,-0.00000234,-0.00000538,0.00000056,0.00001
 491,-0.00000627,-0.00000373,-0.00002601,-0.00001390,0.00001371,-0.0000
 1163,-0.00001486,-0.00000375,-0.00000933,-0.00010349,-0.00002406,-0.00
 006019,-0.00008126,0.00001145,0.00008425,0.00033068,-0.00013149,-0.000
 12877,-0.00025113,0.00005543,0.00022080,0.00012655,0.00006203,0.000090
 28,0.00020220,-0.00006038,-0.00019001,0.00011066,-0.00023626,-0.000017
 42,0.00004787,0.00000374,-0.00001622,-0.00009631,-0.00006857,-0.000023
 47,-0.00002648,-0.00001379,-0.00004396,-0.00020583,0.00009441,0.000080
 25,-0.00004347,0.00003298,0.00005603,0.00009197,0.00000957,0.00003439,
 0.00004011,-0.00001509,-0.00002751,-0.00045336,-0.00011956,0.00012775,
 -0.00002566,0.00001679,-0.00001673,-0.00006291,-0.00000368,-0.00000129
 ,-0.00003747,0.00002934,0.00000851,-0.00001248,-0.00001536,0.00001598,
 -0.00002968,0.00001091,0.00000250,-0.00001530,-0.00001870,0.00000560,0
 .00004510,0.00006851,-0.00002730,0.00055683,0.00037067,-0.00027018,0.0
 0010389,-0.00004714,-0.00009228,-0.00362276,-0.02080484,0.01015296,0.0
 0066133,0.00042477,-0.00004205,-0.00512192,-0.00247715,-0.00167118,0.0
 0046936,-0.00127784,0.00084955,0.00012671,0.00033985,-0.00088487,0.000
 19901,0.00129974,0.00033192,0.00095607,-0.00027606,-0.00007802,-0.0007
 4199,-0.00000512,-0.00071653,-0.00001599,-0.00011199,0.00003880,0.0000
 3423,-0.00000199,0.00001771,-0.00001231,-0.00011870,0.00006759,-0.0004
 5707,0.00005465,-0.00037208,-0.00001080,0.00003964,0.00015999,0.001354
 67,0.00006355,-0.00029520,-0.00018444,0.00065062,0.00107463,-0.0033553
 1,-0.00199040,-0.00006212,0.00002886,0.00001802,-0.00006312,0.00068564
 ,0.00041800,-0.00031234,-0.03984153,-0.00921786,0.00402863,0.05370200,
 0.00157678,0.00095857,0.00012978,-0.00014498,0.00000849,0.00018510,-0.
 00022063,-0.00000503,0.00002136,0.00006459,0.00006445,0.00015572,0.000
 07063,-0.00024541,-0.00007590,-0.00027856,0.00022439,-0.00023501,0.006
 20064,-0.00978400,0.00376814,-0.00043915,0.00090142,0.00287215,-0.0008
 8818,-0.00075051,-0.00209945,-0.00013336,0.00004219,-0.00007439,-0.000
 00874,-0.00000112,-0.00000232,0.00001327,0.00001862,-0.00000799,-0.000
 00935,-0.00001519,0.00000802,0.00003358,0.00004769,-0.00002122,0.00098
 988,0.00013167,0.00008445,0.00078888,-0.00003741,-0.00025346,-0.000549
 01,-0.00038301,-0.00089625,-0.00008265,0.00005665,0.00111022,-0.000029
 59,-0.00002813,0.00002799,-0.00012451,-0.00011007,-0.00015351,-0.00000
 433,-0.00001133,-0.00001005,-0.00001933,0.00001448,-0.00000979,0.00001
 065,-0.00000161,-0.00001230,0.00000670,0.00000796,0.00002385,0.0000119
 6,0.00000215,0.00001234,0.00003237,0.00001436,0.00003825,0.00008596,0.
 00002445,0.00004348,0.00006520,-0.00005525,-0.00004907,0.00022912,0.00
 023800,-0.00018532,0.00006063,-0.00023040,0.00022010,-0.00012214,-0.00
 003780,-0.00008317,-0.00011631,0.00009255,0.00013054,-0.00000553,0.000
 13242,-0.00009211,-0.00000941,0.00004900,-0.00004403,0.00008788,0.0000
 3949,0.00003978,0.00002546,0.00000871,0.00003382,0.00012425,-0.0000969
 8,-0.00005545,0.00001368,-0.00003500,-0.00004451,-0.00006736,0.0000278
 0,-0.00002223,-0.00004433,-0.00001187,0.00002113,0.00027398,0.00006598
 ,-0.00000970,0.00001287,-0.00001264,0.00001271,0.00002813,0.00000305,0
 .00000373,0.00002839,-0.00002671,-0.00001024,0.00001210,0.00000663,-0.
 00000511,0.00002400,-0.00000469,-0.00000256,0.00001748,0.00001945,-0.0
 0000305,-0.00005037,-0.00003474,-0.00000468,-0.00017698,-0.00000551,-0
 .00000964,-0.00007658,0.00002211,0.00002710,-0.00357139,-0.01530795,0.
 00658539,0.00044728,0.00036096,0.00017439,-0.00247253,0.00009797,-0.00
 165062,0.00001353,-0.00066115,0.00050274,-0.00000037,0.00000883,-0.000
 40588,-0.00012136,-0.00014076,0.00006209,0.00006984,-0.00000687,0.0000
 8757,0.00003096,-0.00002131,0.00001139,0.00000524,0.00003000,-0.000021
 05,-0.00000098,-0.00001297,-0.00000242,0.00000468,0.00002564,-0.000016
 97,-0.00019035,0.00007338,-0.00018485,0.00005166,0.00008963,0.00007489
 ,0.00033221,0.00082822,0.00014121,-0.00002633,0.00004308,-0.00004273,0
 .00062061,0.00039206,-0.00040961,0.00000393,0.00005996,-0.00005243,-0.
 00053992,-0.00016436,0.00015886,-0.01246904,-0.26592197,0.11182297,0.0
 1015910,0.28359721,0.00044025,0.00003905,0.00065661,-0.00019227,-0.000
 09335,-0.00001578,0.00007486,-0.00008850,0.00012510,0.00002864,-0.0000
 2268,-0.00010219,-0.00009205,0.00002564,0.00002194,0.00036767,0.000014
 47,-0.00010402,0.00053817,-0.00341349,0.00245857,0.00006001,-0.0015637
 0,0.00031284,-0.00019599,0.00014948,-0.00032668,-0.00005676,0.00010888
 ,-0.00004713,-0.00000030,-0.00000472,-0.00000192,0.00000644,0.00000941
 ,-0.00000676,0.00000130,-0.00001346,0.00000302,-0.00000898,-0.00002014
 ,-0.00003961,0.00013944,0.00005026,-0.00010620,-0.00017146,0.00030744,
 0.00011566,-0.00017107,0.00065419,0.00059997,-0.00044168,-0.00034979,0
 .00004641,0.00000259,0.00004980,-0.00029270,-0.00004267,0.00005678,0.0
 0003821,0.00000004,0.00000273,0.00001663,-0.00001461,0.00002349,0.0000
 7730,-0.00000318,-0.00000991,0.00002195,0.00000713,0.00000913,-0.00000
 771,-0.00002686,0.00000775,0.00000282,-0.00001106,-0.00000859,-0.00001
 378,-0.00001459,-0.00001709,-0.00001626,-0.00001522,-0.00000221,0.0000
 0055,-0.00005176,-0.00005641,-0.00012771,0.00002070,0.00003540,0.00020
 861,-0.00000578,0.00003732,0.00001429,0.00003306,-0.00002083,-0.000011
 13,-0.00001025,-0.00000787,-0.00004832,-0.00001875,-0.00005449,-0.0000
 5171,0.00000104,-0.00001829,-0.00000806,0.00000002,-0.00000713,-0.0000
 0715,-0.00002802,0.00000782,0.00000305,-0.00000755,0.00000477,-0.00000
 089,0.00000645,0.00000906,0.00000472,0.00000715,0.00001056,0.00000297,
 0.00043847,0.00029466,-0.00010221,-0.00000336,0.00000300,-0.00000281,-
 0.00001035,0.00000031,-0.00000124,-0.00000510,0.00000322,-0.00000032,-
 0.00000135,-0.00000370,-0.00000253,0.00000225,-0.00000183,-0.00000141,
 -0.00000214,-0.00000822,-0.00000114,-0.00004091,-0.00009596,0.00002067
 ,-0.00053375,-0.00038367,-0.00008218,-0.00009250,-0.00001537,0.0000316
 6,-0.00299808,-0.01355333,0.00533067,0.00075392,0.00000007,0.00051258,
 -0.00316453,-0.00141881,-0.00042172,0.00028713,-0.00048344,0.00065713,
 -0.00022197,-0.00035217,-0.00041213,-0.00008589,0.00023953,0.00016736,
 0.00011770,0.00003749,0.00004908,-0.00003770,-0.00010377,-0.00010498,-
 0.00000003,-0.00000059,0.00000797,0.00000139,-0.00000769,-0.00000163,-
 0.00000175,0.00000351,0.00000879,-0.00030743,-0.00001722,-0.00025250,0
 .00016576,0.00015597,0.00021777,0.00063561,0.00078386,-0.00019218,-0.0
 0002964,0.00006850,-0.00004086,0.00003387,-0.00137134,0.00029846,0.000
 14889,-0.00035658,-0.00004263,0.00011087,0.00005886,0.00011846,0.00603
 322,0.11317422,-0.09953634,-0.00276720,-0.11842971,0.10101851,0.001484
 52,0.00050802,0.00034520,-0.00214972,0.00003940,-0.00098583,-0.0001895
 4,0.00025792,0.00021728,0.00012662,0.00005016,0.00020863,0.00024093,-0
 .00014611,-0.00001066,-0.00025388,0.00012854,-0.00015709,-0.00718002,0
 .00549794,0.02547644,-0.00431807,0.00221216,-0.00191274,-0.00123961,0.
 00128278,0.00374048,-0.00335914,0.00104752,0.00140220,0.00000658,-0.00
 004521,-0.00000217,0.00002372,-0.00000807,0.00004255,0.00001689,-0.000
 01103,0.00001146,0.00004905,-0.00001886,0.00013247,0.00118206,-0.00012
 974,-0.00058399,-0.00140151,-0.00033195,0.00186423,-0.00000892,-0.0000
 9610,0.00013647,-0.00193130,-0.00053720,-0.00252632,0.00003817,-0.0000
 7053,-0.00020383,-0.00032554,-0.00031584,-0.00130476,0.00000108,0.0000
 1541,0.00003847,-0.00003094,-0.00000310,0.00001747,-0.00000122,0.00001
 352,0.00002409,-0.00001110,0.00001124,0.00004108,0.00019511,0.00004868
 ,0.00016948,0.00015321,-0.00001214,0.00014886,-0.00001236,-0.00000957,
 -0.00004738,-0.00007247,0.00003602,-0.00000841,-0.00002245,-0.00006779
 ,-0.00008802,0.00002370,0.00013142,0.00004377,-0.00002324,0.00002365,0
 .00003716,0.00009529,-0.00008878,-0.00001702,-0.00003085,-0.00006942,-
 0.00002567,-0.00001280,-0.00005058,-0.00001112,0.00001423,-0.00001080,
 -0.00004349,0.00000356,-0.00000390,-0.00001891,-0.00006116,0.00003181,
 -0.00002540,-0.00001895,0.00001695,0.00000389,0.00003959,-0.00001142,0
 .00002303,0.00000314,0.00000212,0.00001632,0.00007142,0.00012807,-0.00
 005301,-0.00001039,0.00000901,-0.00001650,-0.00001723,-0.00000342,-0.0
 0000566,-0.00001662,0.00001304,0.00000227,-0.00000242,-0.00000119,-0.0
 0001106,0.00000176,-0.00000063,-0.00000300,-0.00000076,-0.00000265,-0.
 00000262,-0.00000226,-0.00004549,0.00001847,-0.00006863,-0.00006503,0.
 00002946,-0.00001119,-0.00002386,0.00000932,0.00318201,-0.00437370,-0.
 02553102,-0.00388922,-0.00264706,-0.00118998,0.00112891,0.00048212,-0.
 00007589,0.00000762,0.00051641,0.00000210,0.00060237,-0.00196444,0.000
 41424,-0.00012401,0.00005348,0.00009376,0.00017033,-0.00003066,0.00004
 657,-0.00008234,-0.00002713,-0.00015567,-0.00001329,0.00000998,0.00002
 117,-0.00000045,0.00000108,0.00000080,-0.00000232,-0.00001848,-0.00000
 167,0.00005558,-0.00006679,0.00003747,-0.00001767,0.00013384,0.0001131
 9,0.00048344,0.00028764,0.00003943,-0.00013287,-0.00004870,0.00010690,
 -0.00037744,-0.00169558,0.00000982,0.00018090,0.00043870,-0.00016468,0
 .00033399,0.00013747,0.00066069,-0.05245959,0.00776819,0.04841163,-0.0
 0093650,0.00036559,0.00142046,0.07090419,0.00033666,-0.00008081,0.0005
 2036,-0.00003974,0.00034264,0.00009513,-0.00005586,0.00001189,0.000054
 04,0.00005322,0.00001385,0.00006473,0.00004901,-0.00004321,-0.00000423
 ,0.00000602,-0.00001364,-0.00014576,0.00392521,-0.00436540,-0.01443014
 ,0.00189773,-0.00076409,0.00133470,0.00042225,0.00112365,-0.00061123,0
 .00032075,0.00084628,-0.00015462,0.00000120,0.00001089,-0.00000362,-0.
 00000002,-0.00000250,0.00000619,-0.00000455,-0.00001306,0.00000006,0.0
 0000572,0.00000423,0.00002465,-0.00051080,-0.00009545,0.00004938,0.000
 66117,0.00026634,-0.00079858,-0.00021186,0.00007527,-0.00013915,-0.001
 11710,-0.00036185,-0.00046870,-0.00000278,0.00001445,0.00011948,-0.000
 02969,0.00003210,0.00031188,-0.00000501,-0.00000315,-0.00000825,0.0000
 1128,0.00000611,-0.00001047,0.00001295,-0.00000600,-0.00001446,-0.0000
 0723,0.00001447,-0.00002523,-0.00007653,-0.00001233,-0.00007708,-0.000
 03025,-0.00000460,-0.00002172,0.00000471,-0.00000665,0.00001628,0.0000
 2970,-0.00003447,0.00000351,0.00001902,0.00002584,-0.00001908,0.000006
 84,-0.00004746,0.00006822,-0.00000173,0.00001407,-0.00000952,-0.000025
 80,0.00006047,-0.00000053,0.00001250,0.00003343,-0.00001066,-0.0000019
 6,-0.00000021,-0.00002010,0.00000097,-0.00000852,0.00001480,0.00000180
 ,-0.00000448,0.00000418,0.00000681,-0.00002558,0.00001735,0.00000129,-
 0.00001279,-0.00000218,-0.00001164,0.00000958,-0.00000787,-0.00000729,
 0.00000382,-0.00000177,0.00013317,0.00003525,-0.00001620,0.00000370,-0
 .00000515,0.00000666,0.00000287,-0.00000177,0.00000150,0.00000565,-0.0
 0000577,-0.00000138,0.00000199,-0.00000061,0.00000155,0.00000368,-0.00
 000257,0.00000042,0.00000068,-0.00000176,-0.00000030,-0.00001776,-0.00
 002042,0.00000111,-0.00014999,-0.00003721,0.00003610,-0.00002781,0.000
 01166,0.00000946,0.00104248,-0.00450318,-0.01744675,-0.00247923,-0.000
 76595,-0.00083366,0.00156293,0.00099230,-0.00125840,-0.00010783,0.0005
 3839,0.00007084,-0.00072269,-0.00286077,0.00065836,0.00006676,0.000107
 88,0.00008302,0.00004756,0.00003010,0.00002331,-0.00009344,-0.00001309
 ,-0.00000513,0.00000530,0.00000350,-0.00000269,-0.00000310,0.00000800,
 -0.00000219,0.00000069,0.00000380,0.00001598,0.00011721,-0.00010347,0.
 00005336,0.00005003,0.00004693,0.00014344,-0.00024466,-0.00025279,0.00
 006652,-0.00009267,-0.00005132,0.00012340,-0.00005839,0.00056362,-0.00
 064766,-0.00000702,-0.00017654,0.00031846,-0.00013920,-0.00004049,-0.0
 0028751,0.00852487,-0.05059609,-0.04290945,-0.00442582,0.00533207,0.02
 593941,-0.00864694,0.05476234,0.00048139,-0.00071056,-0.00006594,0.001
 06735,-0.00013903,-0.00037559,0.00007489,0.00027094,0.00029682,0.00008
 247,-0.00009078,0.00009286,0.00010171,-0.00001916,-0.00002216,-0.00011
 678,0.00001202,-0.00013263,0.00203328,-0.00023114,-0.00088965,-0.00062
 232,0.00017820,0.00029414,-0.00011051,-0.00071057,-0.00041247,0.001284
 83,-0.00036536,0.00087221,0.00000297,0.00002374,-0.00002571,0.00001862
 ,-0.00002941,0.00003754,-0.00000213,-0.00000412,0.00000862,-0.00003798
 ,0.00003441,0.00006235,0.00023926,0.00005517,-0.00003933,0.00002635,-0
 .00017219,0.00016203,0.00012843,0.00005327,0.00007576,-0.00544713,0.00
 015204,-0.00266590,-0.00002400,0.00002523,0.00007951,-0.00038439,0.000
 23193,-0.00018898,-0.00000048,-0.00000201,-0.00000626,0.00000806,-0.00
 000287,-0.00001010,0.00000328,0.00000107,-0.00000768,0.00002826,-0.000
 02540,-0.00000337,0.00003015,0.00000323,0.00005407,-0.00002050,-0.0000
 1132,-0.00003128,0.00002362,0.00000760,0.00001172,0.00001798,-0.000015
 93,-0.00001111,-0.00000504,0.00003135,-0.00000223,-0.00000974,-0.00004
 740,-0.00000837,-0.00002899,-0.00001563,-0.00002006,-0.00002756,0.0000
 2520,0.00002159,0.00000087,0.00002208,-0.00000376,0.00000547,0.0000227
 6,0.00000382,0.00002015,0.00001080,0.00001118,0.00000682,0.00000331,0.
 00000791,0.00002482,-0.00001676,-0.00001013,0.00000458,-0.00000799,-0.
 00000734,-0.00001667,0.00000764,-0.00000380,-0.00001303,-0.00000646,0.
 00000367,-0.00004314,-0.00004649,0.00002144,0.00000351,-0.00000289,0.0
 0000354,0.00000694,0.00000085,0.00000102,0.00000683,-0.00000618,-0.000
 00224,0.00000360,0.00000143,-0.00000087,0.00000563,-0.00000108,-0.0000
 0070,0.00000495,0.00000625,-0.00000047,0.00000087,0.00002375,-0.000009
 10,0.00005880,0.00002908,-0.00002206,0.00000796,0.00000360,-0.00000618
 ,-0.00080176,-0.00225283,-0.01090794,-0.00133277,-0.00071967,0.0006497
 9,0.00021074,0.00057535,0.00050776,0.00001030,0.00035489,0.00010211,-0
 .00020979,-0.00044334,0.00021278,0.00007282,-0.00007262,0.00000434,-0.
 00013650,0.00002295,-0.00003731,0.00003486,0.00006910,0.00009006,-0.00
 000740,-0.00000211,0.00000231,-0.00000363,-0.00000716,0.00000743,0.000
 00405,0.00001053,0.00000376,0.00002607,-0.00008080,-0.00002295,0.00023
 539,0.00041222,-0.00003259,-0.00019928,-0.00024666,-0.00013989,0.00007
 236,-0.00000965,-0.00002105,0.00012939,0.00016759,0.00012694,0.0001737
 3,-0.00055714,-0.00009972,-0.00010203,-0.00001160,0.00003896,0.0514612
 1,-0.04300121,-0.31189563,0.00185320,-0.00290246,-0.01063577,-0.050395
 23,0.05013844,0.33491026\\0.00000041,0.00000195,-0.00000062,0.00000003
 ,-0.00000047,0.00000048,0.00000036,-0.00000011,0.00000139,0.00000090,0
 .00000263,0.00000094,0.00000126,0.00000498,-0.00000028,0.00000079,0.00
 000469,-0.00000116,-0.00000155,-0.00000509,0.00000113,0.00000071,0.000
 00202,-0.00000020,-0.00000002,-0.00000078,0.00000136,-0.00000050,-0.00
 000260,0.00000078,0.,-0.00000190,0.00000234,0.00000113,0.00000293,0.00
 000165,0.00000175,0.00000708,-0.00000058,0.00000124,0.00000642,-0.0000
 0209,-0.00000142,-0.00000643,0.00000026,0.00000029,0.00000322,0.000000
 14,0.00000090,0.00000420,-0.00000121,-0.00000069,-0.00000520,0.0000020
 3,0.00000143,0.00000667,-0.00000175,-0.00000156,-0.00000815,0.00000279
 ,0.00000161,0.00000836,-0.00000285,0.00000099,0.00000629,-0.00000294,0
 .00000209,0.00000770,0.00000028,-0.00000178,-0.00000951,0.00000336,-0.
 00000110,-0.00000787,0.00000451,-0.00000222,-0.00000911,0.00000087,-0.
 00000105,-0.00000470,0.00000191,0.00000060,0.00000177,0.00000115,0.000
 00068,-0.00000112,0.00000583,0.00000122,0.00000119,0.00000766,-0.00000
 059,-0.00000614,0.00000491,-0.00000083,0.00000044,-0.00000196,0.000001
 47,0.00000166,0.00000586,0.00000223,0.00000075,0.00001094,-0.00000012,
 -0.00000443,0.00000611,-0.00000130,-0.00000918,0.00000527,-0.00000138,
 -0.00000103,-0.00000228,0.00000021,0.00000355,-0.00000470,-0.00000101,
 -0.00000139,-0.00000238,0.00000022,-0.00000462,0.00000654,0.00000306,0
 .00000465,0.00000655,-0.00000168,-0.00000360,-0.00000374,-0.00000038,-
 0.00000163,-0.00000009,-0.00000091,0.00000033,-0.00000430,0.00000092,-
 0.00000192,0.00000619,-0.00000038,-0.00000562,0.00000526,0.00000051,-0
 .00000542,0.00000922,0.00000373,0.00000568,0.00000904,0.00000216,0.000
 00462,0.00000517,0.00000266,0.00000623,0.00000566,0.00000003,0.0000013
 8,-0.00000121,0.00000038,0.00000412,-0.00000208,-0.00000043,0.00000060
 ,-0.00000536,-0.00000067,0.00000237,-0.00000706,-0.00000205,-0.0000027
 7,-0.00000538,-0.00000170,-0.00000193,-0.00000525,-0.00000114,0.000003
 06,-0.00000794,-0.00000131,0.00000098,-0.00000707,-0.00000182,-0.00000
 296,-0.00000511,-0.00000055,0.00000519,-0.00000934,-0.00000135,0.00000
 109,-0.00000776,-0.00000099,0.00000359,-0.00000853,-0.00000231,-0.0000
 0498,-0.00000464,-0.00000167,-0.00000113,-0.00000476,-0.00000069,0.000
 00311,-0.00000724,-0.00000065,0.00000314,-0.00000657,-0.00000232,-0.00
 000518,-0.00000409,0.00000328,-0.00000078,0.00000200,0.00000045,0.0000
 0081,0.00000002,0.00000095,0.00000059,0.00000233,-0.00000057,-0.000002
 29,0.00000057\\\@


 WE SHOULD BE CAREFUL TO GET OUT OF AN EXPERIENCE ONLY THE WISDOM
 THAT IS IN IT -- AND STOP THERE;
 LEST WE BE LIKE THE CAT THAT SITS DOWN ON A HOT STOVE-LID.
 SHE WILL NEVER SIT DOWN ON A HOT STOVE LID AGAIN;
 BUT ALSO SHE WILL NEVER SIT DOWN ON A COLD ONE ANY MORE.

                                                     -- MARK TWAIN
 Job cpu time:       1 days  6 hours 58 minutes 41.6 seconds.
 Elapsed time:       0 days  1 hours 17 minutes 32.9 seconds.
 File lengths (MBytes):  RWF=   6984 Int=      0 D2E=      0 Chk=     96 Scr=      8
 Normal termination of Gaussian 16 at Tue Mar 11 19:16:29 2025.
