 Entering Gaussian System, Link 0=/sysapps/ubuntu-applications/gaussian-new/avx/g16//g16
 Input=ts-min.in
 Output=ts-min.log
 Initial command:
 /sysapps/ubuntu-applications/gaussian-new/avx/g16/l1.exe "/data/temp-scratch/selhajj1/7665548/Gau-1867110.inp" -scrdir="/data/temp-scratch/selhajj1/7665548/"
 Entering Link 1 = /sysapps/ubuntu-applications/gaussian-new/avx/g16/l1.exe PID=   1867112.
  
 Copyright (c) 1988,1990,1992,1993,1995,1998,2003,2009,2016,
            Gaussian, Inc.  All Rights Reserved.
  
 This is part of the Gaussian(R) 16 program.  It is based on
 the Gaussian(R) 09 system (copyright 2009, Gaussian, Inc.),
 the Gaussian(R) 03 system (copyright 2003, Gaussian, Inc.),
 the Gaussian(R) 98 system (copyright 1998, Gaussian, Inc.),
 the Gaussian(R) 94 system (copyright 1995, Gaussian, Inc.),
 the Gaussian 92(TM) system (copyright 1992, Gaussian, Inc.),
 the Gaussian 90(TM) system (copyright 1990, Gaussian, Inc.),
 the Gaussian 88(TM) system (copyright 1988, Gaussian, Inc.),
 the Gaussian 86(TM) system (copyright 1986, Carnegie Mellon
 University), and the Gaussian 82(TM) system (copyright 1983,
 Carnegie Mellon University). Gaussian is a federally registered
 trademark of Gaussian, Inc.
  
 This software contains proprietary and confidential information,
 including trade secrets, belonging to Gaussian, Inc.
  
 This software is provided under written license and may be
 used, copied, transmitted, or stored only in accord with that
 written license.
  
 The following legend is applicable only to US Government
 contracts under FAR:
  
                    RESTRICTED RIGHTS LEGEND
  
 Use, reproduction and disclosure by the US Government is
 subject to restrictions as set forth in subparagraphs (a)
 and (c) of the Commercial Computer Software - Restricted
 Rights clause in FAR 52.227-19.
  
 Gaussian, Inc.
 340 Quinnipiac St., Bldg. 40, Wallingford CT 06492
  
  
 ---------------------------------------------------------------
 Warning -- This program may not be used in any manner that
 competes with the business of Gaussian, Inc. or will provide
 assistance to any competitor of Gaussian, Inc.  The licensee
 of this program is prohibited from giving any competitor of
 Gaussian, Inc. access to this program.  By using this program,
 the user acknowledges that Gaussian, Inc. is engaged in the
 business of creating and licensing software in the field of
 computational chemistry and represents and warrants to the
 licensee that it is not a competitor of Gaussian, Inc. and that
 it will not use this program in any manner prohibited above.
 ---------------------------------------------------------------
  

 Cite this work as:
 Gaussian 16, Revision A.03,
 M. J. Frisch, G. W. Trucks, H. B. Schlegel, G. E. Scuseria, 
 M. A. Robb, J. R. Cheeseman, G. Scalmani, V. Barone, 
 G. A. Petersson, H. Nakatsuji, X. Li, M. Caricato, A. V. Marenich, 
 J. Bloino, B. G. Janesko, R. Gomperts, B. Mennucci, H. P. Hratchian, 
 J. V. Ortiz, A. F. Izmaylov, J. L. Sonnenberg, D. Williams-Young, 
 F. Ding, F. Lipparini, F. Egidi, J. Goings, B. Peng, A. Petrone, 
 T. Henderson, D. Ranasinghe, V. G. Zakrzewski, J. Gao, N. Rega, 
 G. Zheng, W. Liang, M. Hada, M. Ehara, K. Toyota, R. Fukuda, 
 J. Hasegawa, M. Ishida, T. Nakajima, Y. Honda, O. Kitao, H. Nakai, 
 T. Vreven, K. Throssell, J. A. Montgomery, Jr., J. E. Peralta, 
 F. Ogliaro, M. J. Bearpark, J. J. Heyd, E. N. Brothers, K. N. Kudin, 
 V. N. Staroverov, T. A. Keith, R. Kobayashi, J. Normand, 
 K. Raghavachari, A. P. Rendell, J. C. Burant, S. S. Iyengar, 
 J. Tomasi, M. Cossi, J. M. Millam, M. Klene, C. Adamo, R. Cammi, 
 J. W. Ochterski, R. L. Martin, K. Morokuma, O. Farkas, 
 J. B. Foresman, and D. J. Fox, Gaussian, Inc., Wallingford CT, 2016.
 
 ******************************************
 Gaussian 16:  ES64L-G16RevA.03 25-Dec-2016
                11-Mar-2025 
 ******************************************
 %chk=ts-min.chk
 %mem=616Gb
 %nprocshared=24
 Will use up to   24 processors via shared memory.
 ----------------------------------------------------------------------
 #opt=(calcfc,modred) freq UMN15/genecp scf=(maxcyc=500) scrf=(smd,solv
 ent=DiChloroEthane)
 ----------------------------------------------------------------------
 1/10=4,18=120,19=15,26=3,38=1/1,3;
 2/9=110,12=2,17=6,18=5,40=1/2;
 3/5=7,11=2,16=1,17=8,25=1,30=1,70=32201,71=2,72=10,74=-73,116=2,140=1/1,2,3;
 4//1;
 5/5=2,7=500,38=5,53=10/2;
 8/6=4,10=90,11=11/1;
 11/6=1,8=1,9=11,15=111,16=1/1,2,10;
 10/6=1,13=1/2;
 6/7=2,8=2,9=2,10=2,28=1/1;
 7/10=1,18=20,25=1/1,2,3,16;
 1/10=4,18=20,19=15,26=3/3(2);
 2/9=110/2;
 99//99;
 2/9=110/2;
 3/5=7,6=1,11=2,16=1,17=8,25=1,30=1,70=32205,71=1,72=10,74=-73,82=7,116=2/1,2,3;
 4/5=5,16=3,69=1/1;
 5/5=2,7=500,38=5,53=10/2;
 7//1,2,3,16;
 1/18=20,19=15,26=3/3(-5);
 2/9=110/2;
 6/7=2,8=2,9=2,10=2,19=2,28=1/1;
 99/9=1/99;
 -----------------------------------------------------------------
 ts opt for i3 Going from i2 to i3, where we are forming bond 1-54
 -----------------------------------------------------------------
 Symbolic Z-matrix:
 Charge =  0 Multiplicity = 2
 C                    -1.84042  -0.55478   1.04503 
 C                    -1.68703   0.06827  -0.33244 
 C                    -0.51328  -0.98589   1.69516 
 O                     0.47898  -0.28664   1.67672 
 O                    -0.69016   0.6581   -0.69698 
 O                    -2.73203  -0.12093  -1.08923 
 O                    -0.54738  -2.11364   2.33988 
 C                    -2.729     0.50678  -2.38167 
 C                     0.69584  -2.55953   2.91085 
 H                    -3.72016   0.32503  -2.81016 
 H                    -1.94502   0.0514   -2.99963 
 H                    -2.54737   1.58478  -2.26422 
 H                     0.487    -3.529     3.37322 
 H                     1.04551  -1.83687   3.65873 
 H                     1.43978  -2.64873   2.10896 
 O                     2.98589  -1.58938   0.56663 
 O                     1.35162  -0.90663  -2.31766 
 O                     1.0972    2.59907   0.92293 
 S                     1.99107   3.51608   0.17534 
 S                     3.74023  -0.9005    1.64624 
 S                     0.38178  -1.97365  -1.98238 
 O                     2.82372   2.74216  -0.77827 
 O                     2.65118   4.55923   0.93238 
 O                     3.44094   0.55246   1.6188 
 O                     3.77193  -1.55148   2.94161 
 O                     0.138    -2.06457  -0.52842 
 O                    -0.81007  -2.03384  -2.81782 
 C                     1.27876  -3.53039  -2.35282 
 C                     5.46797  -0.97271   1.03049 
 C                     0.83837   4.40115  -0.94725 
 F                     0.51026  -4.55521  -2.00364 
 F                     2.41086  -3.58647  -1.67664 
 F                     1.53577  -3.60763  -3.64853 
 F                     5.53486  -0.39606  -0.16443 
 F                     5.86015  -2.23351   0.92033 
 F                     6.28019  -0.33839   1.86074 
 F                     0.09757   3.52433  -1.61568 
 F                     1.51446   5.13853  -1.81487 
 F                     0.03454   5.19276  -0.24759 
 C                    -3.96351   0.51249   1.76038 
 C                    -4.87417  -0.76024   1.63672 
 C                    -6.30262  -0.45686   1.4488 
 C                    -4.77687  -1.49591   2.92055 
 C                    -2.66938  -2.97981  -0.39849 
 C                    -4.54205  -2.13734  -1.64478 
 C                    -3.3604   -2.9229   -1.58314 
 H                    -1.76617  -3.57577  -0.26876 
 H                    -5.13045  -2.05841  -2.56143 
 H                    -3.03113  -3.47982  -2.46027 
 N                    -7.43148  -0.21626   1.39212 
 N                    -4.74656  -2.001     3.9593 
 N                    -4.34378  -1.5768    0.52683 
 N                    -5.00819  -1.47893  -0.61087 
 C                    -3.14739  -2.21941   0.70071 
 H                    -2.89208  -2.50402   1.72505 
 H                    -4.23822   0.97032   2.72365 
 C                    -3.99896   1.58015   0.68646 
 C                    -2.96402   2.52665   0.76299 
 C                    -4.9764    1.70708  -0.3057 
 C                    -2.9075    3.58636  -0.14156 
 H                    -2.19334   2.43586   1.53368 
 C                    -4.92297   2.78086  -1.19968 
 H                    -5.78039   0.97943  -0.41503 
 C                    -3.89476   3.72085  -1.1209 
 H                    -2.09368   4.31017  -0.07391 
 H                    -5.69373   2.87363  -1.96741 
 H                    -3.85829   4.55529  -1.82434 
 Yb                    1.78474   0.47542  -0.27758 
 O                    -2.63259   0.02772   1.98292 
 
 The following ModRedundant input section has been read:
 B       1      54 F                                                           
 B       1      54 F                                                           
 

 GradGradGradGradGradGradGradGradGradGradGradGradGradGradGradGradGradGrad
 Berny optimization.
 Initialization pass.
                           ----------------------------
                           !    Initial Parameters    !
                           ! (Angstroms and Degrees)  !
 --------------------------                            --------------------------
 ! Name  Definition              Value          Derivative Info.                !
 --------------------------------------------------------------------------------
 ! R1    R(1,2)                  1.5196         calculate D2E/DX2 analytically  !
 ! R2    R(1,3)                  1.5394         calculate D2E/DX2 analytically  !
 ! R3    R(1,54)                 2.1442         frozen, calculate D2E/DX2 analyt!
 ! R4    R(1,69)                 1.3588         calculate D2E/DX2 analytically  !
 ! R5    R(2,5)                  1.2143         calculate D2E/DX2 analytically  !
 ! R6    R(2,6)                  1.3041         calculate D2E/DX2 analytically  !
 ! R7    R(3,4)                  1.214          calculate D2E/DX2 analytically  !
 ! R8    R(3,7)                  1.2995         calculate D2E/DX2 analytically  !
 ! R9    R(4,68)                 2.4708         calculate D2E/DX2 analytically  !
 ! R10   R(5,68)                 2.5168         calculate D2E/DX2 analytically  !
 ! R11   R(6,8)                  1.4368         calculate D2E/DX2 analytically  !
 ! R12   R(7,9)                  1.4389         calculate D2E/DX2 analytically  !
 ! R13   R(8,10)                 1.095          calculate D2E/DX2 analytically  !
 ! R14   R(8,11)                 1.0972         calculate D2E/DX2 analytically  !
 ! R15   R(8,12)                 1.0995         calculate D2E/DX2 analytically  !
 ! R16   R(9,13)                 1.0942         calculate D2E/DX2 analytically  !
 ! R17   R(9,14)                 1.0972         calculate D2E/DX2 analytically  !
 ! R18   R(9,15)                 1.0975         calculate D2E/DX2 analytically  !
 ! R19   R(16,20)                1.4863         calculate D2E/DX2 analytically  !
 ! R20   R(16,68)                2.5335         calculate D2E/DX2 analytically  !
 ! R21   R(17,21)                1.4804         calculate D2E/DX2 analytically  !
 ! R22   R(17,68)                2.5019         calculate D2E/DX2 analytically  !
 ! R23   R(18,19)                1.4828         calculate D2E/DX2 analytically  !
 ! R24   R(18,68)                2.5345         calculate D2E/DX2 analytically  !
 ! R25   R(19,22)                1.4838         calculate D2E/DX2 analytically  !
 ! R26   R(19,23)                1.4481         calculate D2E/DX2 analytically  !
 ! R27   R(19,30)                1.8364         calculate D2E/DX2 analytically  !
 ! R28   R(20,24)                1.4837         calculate D2E/DX2 analytically  !
 ! R29   R(20,25)                1.4501         calculate D2E/DX2 analytically  !
 ! R30   R(20,29)                1.8356         calculate D2E/DX2 analytically  !
 ! R31   R(20,68)                3.0689         calculate D2E/DX2 analytically  !
 ! R32   R(21,26)                1.4771         calculate D2E/DX2 analytically  !
 ! R33   R(21,27)                1.4567         calculate D2E/DX2 analytically  !
 ! R34   R(21,28)                1.8345         calculate D2E/DX2 analytically  !
 ! R35   R(22,68)                2.5433         calculate D2E/DX2 analytically  !
 ! R36   R(24,68)                2.519          calculate D2E/DX2 analytically  !
 ! R37   R(28,31)                1.3277         calculate D2E/DX2 analytically  !
 ! R38   R(28,32)                1.3199         calculate D2E/DX2 analytically  !
 ! R39   R(28,33)                1.3232         calculate D2E/DX2 analytically  !
 ! R40   R(29,34)                1.3285         calculate D2E/DX2 analytically  !
 ! R41   R(29,35)                1.325          calculate D2E/DX2 analytically  !
 ! R42   R(29,36)                1.3234         calculate D2E/DX2 analytically  !
 ! R43   R(30,37)                1.3283         calculate D2E/DX2 analytically  !
 ! R44   R(30,38)                1.3242         calculate D2E/DX2 analytically  !
 ! R45   R(30,39)                1.3275         calculate D2E/DX2 analytically  !
 ! R46   R(40,41)                1.5699         calculate D2E/DX2 analytically  !
 ! R47   R(40,56)                1.1013         calculate D2E/DX2 analytically  !
 ! R48   R(40,57)                1.5148         calculate D2E/DX2 analytically  !
 ! R49   R(40,69)                1.4338         calculate D2E/DX2 analytically  !
 ! R50   R(41,42)                1.4724         calculate D2E/DX2 analytically  !
 ! R51   R(41,43)                1.4829         calculate D2E/DX2 analytically  !
 ! R52   R(41,52)                1.4765         calculate D2E/DX2 analytically  !
 ! R53   R(42,50)                1.1556         calculate D2E/DX2 analytically  !
 ! R54   R(43,51)                1.1554         calculate D2E/DX2 analytically  !
 ! R55   R(44,46)                1.3726         calculate D2E/DX2 analytically  !
 ! R56   R(44,47)                1.0899         calculate D2E/DX2 analytically  !
 ! R57   R(44,54)                1.4195         calculate D2E/DX2 analytically  !
 ! R58   R(45,46)                1.4203         calculate D2E/DX2 analytically  !
 ! R59   R(45,48)                1.0921         calculate D2E/DX2 analytically  !
 ! R60   R(45,53)                1.3114         calculate D2E/DX2 analytically  !
 ! R61   R(46,49)                1.0899         calculate D2E/DX2 analytically  !
 ! R62   R(52,53)                1.3211         calculate D2E/DX2 analytically  !
 ! R63   R(52,54)                1.3691         calculate D2E/DX2 analytically  !
 ! R64   R(54,55)                1.0934         calculate D2E/DX2 analytically  !
 ! R65   R(57,58)                1.4046         calculate D2E/DX2 analytically  !
 ! R66   R(57,59)                1.3985         calculate D2E/DX2 analytically  !
 ! R67   R(58,60)                1.3944         calculate D2E/DX2 analytically  !
 ! R68   R(58,61)                1.0937         calculate D2E/DX2 analytically  !
 ! R69   R(59,62)                1.3982         calculate D2E/DX2 analytically  !
 ! R70   R(59,63)                1.0899         calculate D2E/DX2 analytically  !
 ! R71   R(60,64)                1.3971         calculate D2E/DX2 analytically  !
 ! R72   R(60,65)                1.0912         calculate D2E/DX2 analytically  !
 ! R73   R(62,64)                1.3954         calculate D2E/DX2 analytically  !
 ! R74   R(62,66)                1.0918         calculate D2E/DX2 analytically  !
 ! R75   R(64,67)                1.092          calculate D2E/DX2 analytically  !
 ! A1    A(2,1,3)              114.244          calculate D2E/DX2 analytically  !
 ! A2    A(2,1,69)             120.5807         calculate D2E/DX2 analytically  !
 ! A3    A(3,1,69)             109.3381         calculate D2E/DX2 analytically  !
 ! A4    A(1,2,5)              123.6523         calculate D2E/DX2 analytically  !
 ! A5    A(1,2,6)              112.6865         calculate D2E/DX2 analytically  !
 ! A6    A(5,2,6)              123.6494         calculate D2E/DX2 analytically  !
 ! A7    A(1,3,4)              122.4725         calculate D2E/DX2 analytically  !
 ! A8    A(1,3,7)              115.4642         calculate D2E/DX2 analytically  !
 ! A9    A(4,3,7)              121.9276         calculate D2E/DX2 analytically  !
 ! A10   A(3,4,68)             128.4326         calculate D2E/DX2 analytically  !
 ! A11   A(2,5,68)             136.2183         calculate D2E/DX2 analytically  !
 ! A12   A(2,6,8)              117.1903         calculate D2E/DX2 analytically  !
 ! A13   A(3,7,9)              116.3038         calculate D2E/DX2 analytically  !
 ! A14   A(6,8,10)             106.1148         calculate D2E/DX2 analytically  !
 ! A15   A(6,8,11)             109.0751         calculate D2E/DX2 analytically  !
 ! A16   A(6,8,12)             109.4262         calculate D2E/DX2 analytically  !
 ! A17   A(10,8,11)            110.9457         calculate D2E/DX2 analytically  !
 ! A18   A(10,8,12)            110.7364         calculate D2E/DX2 analytically  !
 ! A19   A(11,8,12)            110.4299         calculate D2E/DX2 analytically  !
 ! A20   A(7,9,13)             106.1008         calculate D2E/DX2 analytically  !
 ! A21   A(7,9,14)             109.9821         calculate D2E/DX2 analytically  !
 ! A22   A(7,9,15)             108.7197         calculate D2E/DX2 analytically  !
 ! A23   A(13,9,14)            110.8763         calculate D2E/DX2 analytically  !
 ! A24   A(13,9,15)            111.4769         calculate D2E/DX2 analytically  !
 ! A25   A(14,9,15)            109.6064         calculate D2E/DX2 analytically  !
 ! A26   A(21,17,68)           109.0799         calculate D2E/DX2 analytically  !
 ! A27   A(19,18,68)            96.6518         calculate D2E/DX2 analytically  !
 ! A28   A(18,19,22)           109.8609         calculate D2E/DX2 analytically  !
 ! A29   A(18,19,23)           117.1742         calculate D2E/DX2 analytically  !
 ! A30   A(18,19,30)           103.1716         calculate D2E/DX2 analytically  !
 ! A31   A(22,19,23)           117.1229         calculate D2E/DX2 analytically  !
 ! A32   A(22,19,30)           102.1669         calculate D2E/DX2 analytically  !
 ! A33   A(23,19,30)           104.9828         calculate D2E/DX2 analytically  !
 ! A34   A(16,20,24)           109.7592         calculate D2E/DX2 analytically  !
 ! A35   A(16,20,25)           116.8652         calculate D2E/DX2 analytically  !
 ! A36   A(16,20,29)           102.4631         calculate D2E/DX2 analytically  !
 ! A37   A(24,20,25)           117.4221         calculate D2E/DX2 analytically  !
 ! A38   A(24,20,29)           102.837          calculate D2E/DX2 analytically  !
 ! A39   A(25,20,29)           105.1544         calculate D2E/DX2 analytically  !
 ! A40   A(25,20,68)           140.8222         calculate D2E/DX2 analytically  !
 ! A41   A(29,20,68)           114.023          calculate D2E/DX2 analytically  !
 ! A42   A(17,21,26)           112.0512         calculate D2E/DX2 analytically  !
 ! A43   A(17,21,27)           115.8422         calculate D2E/DX2 analytically  !
 ! A44   A(17,21,28)           104.2163         calculate D2E/DX2 analytically  !
 ! A45   A(26,21,27)           115.2745         calculate D2E/DX2 analytically  !
 ! A46   A(26,21,28)           103.135          calculate D2E/DX2 analytically  !
 ! A47   A(27,21,28)           104.429          calculate D2E/DX2 analytically  !
 ! A48   A(19,22,68)            96.2632         calculate D2E/DX2 analytically  !
 ! A49   A(21,28,31)           108.5958         calculate D2E/DX2 analytically  !
 ! A50   A(21,28,32)           110.61           calculate D2E/DX2 analytically  !
 ! A51   A(21,28,33)           110.0141         calculate D2E/DX2 analytically  !
 ! A52   A(31,28,32)           109.205          calculate D2E/DX2 analytically  !
 ! A53   A(31,28,33)           108.9595         calculate D2E/DX2 analytically  !
 ! A54   A(32,28,33)           109.4258         calculate D2E/DX2 analytically  !
 ! A55   A(20,29,34)           109.3929         calculate D2E/DX2 analytically  !
 ! A56   A(20,29,35)           110.1157         calculate D2E/DX2 analytically  !
 ! A57   A(20,29,36)           110.3874         calculate D2E/DX2 analytically  !
 ! A58   A(34,29,35)           108.8667         calculate D2E/DX2 analytically  !
 ! A59   A(34,29,36)           108.9861         calculate D2E/DX2 analytically  !
 ! A60   A(35,29,36)           109.0619         calculate D2E/DX2 analytically  !
 ! A61   A(19,30,37)           109.8492         calculate D2E/DX2 analytically  !
 ! A62   A(19,30,38)           110.3908         calculate D2E/DX2 analytically  !
 ! A63   A(19,30,39)           110.2004         calculate D2E/DX2 analytically  !
 ! A64   A(37,30,38)           108.8203         calculate D2E/DX2 analytically  !
 ! A65   A(37,30,39)           108.7321         calculate D2E/DX2 analytically  !
 ! A66   A(38,30,39)           108.8087         calculate D2E/DX2 analytically  !
 ! A67   A(41,40,56)           105.1425         calculate D2E/DX2 analytically  !
 ! A68   A(41,40,57)           120.1329         calculate D2E/DX2 analytically  !
 ! A69   A(41,40,69)           106.0563         calculate D2E/DX2 analytically  !
 ! A70   A(56,40,57)           108.7386         calculate D2E/DX2 analytically  !
 ! A71   A(56,40,69)           103.6705         calculate D2E/DX2 analytically  !
 ! A72   A(57,40,69)           111.7198         calculate D2E/DX2 analytically  !
 ! A73   A(40,41,42)           113.9414         calculate D2E/DX2 analytically  !
 ! A74   A(40,41,43)           107.2143         calculate D2E/DX2 analytically  !
 ! A75   A(40,41,52)           107.4098         calculate D2E/DX2 analytically  !
 ! A76   A(42,41,43)           106.0444         calculate D2E/DX2 analytically  !
 ! A77   A(42,41,52)           111.5023         calculate D2E/DX2 analytically  !
 ! A78   A(43,41,52)           110.663          calculate D2E/DX2 analytically  !
 ! A79   A(46,44,47)           122.8617         calculate D2E/DX2 analytically  !
 ! A80   A(46,44,54)           118.462          calculate D2E/DX2 analytically  !
 ! A81   A(47,44,54)           118.6741         calculate D2E/DX2 analytically  !
 ! A82   A(46,45,48)           121.6451         calculate D2E/DX2 analytically  !
 ! A83   A(46,45,53)           122.6299         calculate D2E/DX2 analytically  !
 ! A84   A(48,45,53)           115.7181         calculate D2E/DX2 analytically  !
 ! A85   A(44,46,45)           118.6349         calculate D2E/DX2 analytically  !
 ! A86   A(44,46,49)           121.4175         calculate D2E/DX2 analytically  !
 ! A87   A(45,46,49)           119.9366         calculate D2E/DX2 analytically  !
 ! A88   A(41,52,53)           115.1963         calculate D2E/DX2 analytically  !
 ! A89   A(41,52,54)           118.5562         calculate D2E/DX2 analytically  !
 ! A90   A(53,52,54)           125.7035         calculate D2E/DX2 analytically  !
 ! A91   A(45,53,52)           117.5803         calculate D2E/DX2 analytically  !
 ! A92   A(44,54,52)           116.5734         calculate D2E/DX2 analytically  !
 ! A93   A(44,54,55)           120.491          calculate D2E/DX2 analytically  !
 ! A94   A(52,54,55)           116.4363         calculate D2E/DX2 analytically  !
 ! A95   A(40,57,58)           114.7775         calculate D2E/DX2 analytically  !
 ! A96   A(40,57,59)           125.6829         calculate D2E/DX2 analytically  !
 ! A97   A(58,57,59)           119.5036         calculate D2E/DX2 analytically  !
 ! A98   A(57,58,60)           120.4404         calculate D2E/DX2 analytically  !
 ! A99   A(57,58,61)           120.1112         calculate D2E/DX2 analytically  !
 ! A100  A(60,58,61)           119.4483         calculate D2E/DX2 analytically  !
 ! A101  A(57,59,62)           119.7735         calculate D2E/DX2 analytically  !
 ! A102  A(57,59,63)           121.7455         calculate D2E/DX2 analytically  !
 ! A103  A(62,59,63)           118.475          calculate D2E/DX2 analytically  !
 ! A104  A(58,60,64)           119.9498         calculate D2E/DX2 analytically  !
 ! A105  A(58,60,65)           119.6109         calculate D2E/DX2 analytically  !
 ! A106  A(64,60,65)           120.4378         calculate D2E/DX2 analytically  !
 ! A107  A(59,62,64)           120.6241         calculate D2E/DX2 analytically  !
 ! A108  A(59,62,66)           119.1996         calculate D2E/DX2 analytically  !
 ! A109  A(64,62,66)           120.1752         calculate D2E/DX2 analytically  !
 ! A110  A(60,64,62)           119.6988         calculate D2E/DX2 analytically  !
 ! A111  A(60,64,67)           120.1008         calculate D2E/DX2 analytically  !
 ! A112  A(62,64,67)           120.1997         calculate D2E/DX2 analytically  !
 ! A113  A(4,68,5)              68.563          calculate D2E/DX2 analytically  !
 ! A114  A(4,68,16)             74.6708         calculate D2E/DX2 analytically  !
 ! A115  A(4,68,17)            112.525          calculate D2E/DX2 analytically  !
 ! A116  A(4,68,18)             74.9551         calculate D2E/DX2 analytically  !
 ! A117  A(4,68,20)             72.7008         calculate D2E/DX2 analytically  !
 ! A118  A(4,68,22)            130.2775         calculate D2E/DX2 analytically  !
 ! A119  A(4,68,24)             76.1987         calculate D2E/DX2 analytically  !
 ! A120  A(5,68,16)            125.5125         calculate D2E/DX2 analytically  !
 ! A121  A(5,68,17)             74.5727         calculate D2E/DX2 analytically  !
 ! A122  A(5,68,18)             75.6032         calculate D2E/DX2 analytically  !
 ! A123  A(5,68,20)            139.7813         calculate D2E/DX2 analytically  !
 ! A124  A(5,68,22)            107.7113         calculate D2E/DX2 analytically  !
 ! A125  A(5,68,24)            140.3337         calculate D2E/DX2 analytically  !
 ! A126  A(16,68,17)            84.467          calculate D2E/DX2 analytically  !
 ! A127  A(16,68,18)           130.8171         calculate D2E/DX2 analytically  !
 ! A128  A(16,68,22)           126.7474         calculate D2E/DX2 analytically  !
 ! A129  A(16,68,24)            57.4765         calculate D2E/DX2 analytically  !
 ! A130  A(17,68,18)           143.3324         calculate D2E/DX2 analytically  !
 ! A131  A(17,68,20)           111.9502         calculate D2E/DX2 analytically  !
 ! A132  A(17,68,22)           113.736          calculate D2E/DX2 analytically  !
 ! A133  A(17,68,24)           138.1236         calculate D2E/DX2 analytically  !
 ! A134  A(18,68,20)           104.5715         calculate D2E/DX2 analytically  !
 ! A135  A(18,68,22)            57.1317         calculate D2E/DX2 analytically  !
 ! A136  A(18,68,24)            78.2373         calculate D2E/DX2 analytically  !
 ! A137  A(20,68,22)           105.2302         calculate D2E/DX2 analytically  !
 ! A138  A(22,68,24)            81.5094         calculate D2E/DX2 analytically  !
 ! A139  A(1,69,40)            125.3757         calculate D2E/DX2 analytically  !
 ! A140  L(41,42,50,48,-1)     184.3177         calculate D2E/DX2 analytically  !
 ! A141  L(41,43,51,3,-1)      182.3678         calculate D2E/DX2 analytically  !
 ! A142  L(41,42,50,48,-2)     178.6138         calculate D2E/DX2 analytically  !
 ! A143  L(41,43,51,3,-2)      176.0597         calculate D2E/DX2 analytically  !
 ! D1    D(3,1,2,5)            -27.6266         calculate D2E/DX2 analytically  !
 ! D2    D(3,1,2,6)            151.1616         calculate D2E/DX2 analytically  !
 ! D3    D(69,1,2,5)           105.843          calculate D2E/DX2 analytically  !
 ! D4    D(69,1,2,6)           -75.3688         calculate D2E/DX2 analytically  !
 ! D5    D(2,1,3,4)             44.0488         calculate D2E/DX2 analytically  !
 ! D6    D(2,1,3,7)           -140.1124         calculate D2E/DX2 analytically  !
 ! D7    D(69,1,3,4)           -94.4866         calculate D2E/DX2 analytically  !
 ! D8    D(69,1,3,7)            81.3522         calculate D2E/DX2 analytically  !
 ! D9    D(2,1,69,40)           46.8424         calculate D2E/DX2 analytically  !
 ! D10   D(3,1,69,40)         -177.6889         calculate D2E/DX2 analytically  !
 ! D11   D(1,2,5,68)            33.2546         calculate D2E/DX2 analytically  !
 ! D12   D(6,2,5,68)          -145.4023         calculate D2E/DX2 analytically  !
 ! D13   D(1,2,6,8)            175.822          calculate D2E/DX2 analytically  !
 ! D14   D(5,2,6,8)             -5.3897         calculate D2E/DX2 analytically  !
 ! D15   D(1,3,4,68)           -63.1446         calculate D2E/DX2 analytically  !
 ! D16   D(7,3,4,68)           121.2825         calculate D2E/DX2 analytically  !
 ! D17   D(1,3,7,9)            177.6775         calculate D2E/DX2 analytically  !
 ! D18   D(4,3,7,9)             -6.4587         calculate D2E/DX2 analytically  !
 ! D19   D(3,4,68,5)            43.1235         calculate D2E/DX2 analytically  !
 ! D20   D(3,4,68,16)          -95.8759         calculate D2E/DX2 analytically  !
 ! D21   D(3,4,68,17)          -18.6975         calculate D2E/DX2 analytically  !
 ! D22   D(3,4,68,18)          123.2742         calculate D2E/DX2 analytically  !
 ! D23   D(3,4,68,20)         -125.8358         calculate D2E/DX2 analytically  !
 ! D24   D(3,4,68,22)          138.6136         calculate D2E/DX2 analytically  !
 ! D25   D(3,4,68,24)         -155.4305         calculate D2E/DX2 analytically  !
 ! D26   D(2,5,68,4)           -30.0942         calculate D2E/DX2 analytically  !
 ! D27   D(2,5,68,16)           20.9212         calculate D2E/DX2 analytically  !
 ! D28   D(2,5,68,17)           92.2696         calculate D2E/DX2 analytically  !
 ! D29   D(2,5,68,18)         -109.3095         calculate D2E/DX2 analytically  !
 ! D30   D(2,5,68,20)          -13.6448         calculate D2E/DX2 analytically  !
 ! D31   D(2,5,68,22)         -157.2298         calculate D2E/DX2 analytically  !
 ! D32   D(2,5,68,24)          -59.0481         calculate D2E/DX2 analytically  !
 ! D33   D(2,6,8,10)          -173.894          calculate D2E/DX2 analytically  !
 ! D34   D(2,6,8,11)            66.5267         calculate D2E/DX2 analytically  !
 ! D35   D(2,6,8,12)           -54.3765         calculate D2E/DX2 analytically  !
 ! D36   D(3,7,9,13)          -177.8469         calculate D2E/DX2 analytically  !
 ! D37   D(3,7,9,14)            62.1784         calculate D2E/DX2 analytically  !
 ! D38   D(3,7,9,15)           -57.8356         calculate D2E/DX2 analytically  !
 ! D39   D(68,17,21,26)         -9.9302         calculate D2E/DX2 analytically  !
 ! D40   D(68,17,21,27)        125.1439         calculate D2E/DX2 analytically  !
 ! D41   D(68,17,21,28)       -120.7572         calculate D2E/DX2 analytically  !
 ! D42   D(21,17,68,4)          -0.8084         calculate D2E/DX2 analytically  !
 ! D43   D(21,17,68,5)         -59.1469         calculate D2E/DX2 analytically  !
 ! D44   D(21,17,68,16)         70.0617         calculate D2E/DX2 analytically  !
 ! D45   D(21,17,68,18)        -95.7694         calculate D2E/DX2 analytically  !
 ! D46   D(21,17,68,20)         78.8253         calculate D2E/DX2 analytically  !
 ! D47   D(21,17,68,22)       -162.0563         calculate D2E/DX2 analytically  !
 ! D48   D(21,17,68,24)         93.5338         calculate D2E/DX2 analytically  !
 ! D49   D(68,18,19,22)         -2.8593         calculate D2E/DX2 analytically  !
 ! D50   D(68,18,19,23)       -139.7718         calculate D2E/DX2 analytically  !
 ! D51   D(68,18,19,30)        105.4821         calculate D2E/DX2 analytically  !
 ! D52   D(19,18,68,4)         167.9641         calculate D2E/DX2 analytically  !
 ! D53   D(19,18,68,5)        -120.8031         calculate D2E/DX2 analytically  !
 ! D54   D(19,18,68,16)        114.3962         calculate D2E/DX2 analytically  !
 ! D55   D(19,18,68,17)        -84.3839         calculate D2E/DX2 analytically  !
 ! D56   D(19,18,68,20)        100.7956         calculate D2E/DX2 analytically  !
 ! D57   D(19,18,68,22)          1.8675         calculate D2E/DX2 analytically  !
 ! D58   D(19,18,68,24)         89.2878         calculate D2E/DX2 analytically  !
 ! D59   D(18,19,22,68)          2.8473         calculate D2E/DX2 analytically  !
 ! D60   D(23,19,22,68)        139.7844         calculate D2E/DX2 analytically  !
 ! D61   D(30,19,22,68)       -106.1623         calculate D2E/DX2 analytically  !
 ! D62   D(18,19,30,37)        -51.6638         calculate D2E/DX2 analytically  !
 ! D63   D(18,19,30,38)       -171.6699         calculate D2E/DX2 analytically  !
 ! D64   D(18,19,30,39)         68.1133         calculate D2E/DX2 analytically  !
 ! D65   D(22,19,30,37)         62.3772         calculate D2E/DX2 analytically  !
 ! D66   D(22,19,30,38)        -57.6289         calculate D2E/DX2 analytically  !
 ! D67   D(22,19,30,39)       -177.8457         calculate D2E/DX2 analytically  !
 ! D68   D(23,19,30,37)       -174.9058         calculate D2E/DX2 analytically  !
 ! D69   D(23,19,30,38)         65.0881         calculate D2E/DX2 analytically  !
 ! D70   D(23,19,30,39)        -55.1287         calculate D2E/DX2 analytically  !
 ! D71   D(16,20,29,34)         57.2497         calculate D2E/DX2 analytically  !
 ! D72   D(16,20,29,35)        -62.3553         calculate D2E/DX2 analytically  !
 ! D73   D(16,20,29,36)        177.1693         calculate D2E/DX2 analytically  !
 ! D74   D(24,20,29,34)        -56.6706         calculate D2E/DX2 analytically  !
 ! D75   D(24,20,29,35)       -176.2756         calculate D2E/DX2 analytically  !
 ! D76   D(24,20,29,36)         63.249          calculate D2E/DX2 analytically  !
 ! D77   D(25,20,29,34)        179.888          calculate D2E/DX2 analytically  !
 ! D78   D(25,20,29,35)         60.283          calculate D2E/DX2 analytically  !
 ! D79   D(25,20,29,36)        -60.1924         calculate D2E/DX2 analytically  !
 ! D80   D(68,20,29,34)          0.0457         calculate D2E/DX2 analytically  !
 ! D81   D(68,20,29,35)       -119.5593         calculate D2E/DX2 analytically  !
 ! D82   D(68,20,29,36)        119.9653         calculate D2E/DX2 analytically  !
 ! D83   D(25,20,68,4)          -1.4981         calculate D2E/DX2 analytically  !
 ! D84   D(25,20,68,5)         -17.5237         calculate D2E/DX2 analytically  !
 ! D85   D(25,20,68,17)       -109.3812         calculate D2E/DX2 analytically  !
 ! D86   D(25,20,68,18)         67.2867         calculate D2E/DX2 analytically  !
 ! D87   D(25,20,68,22)        126.5973         calculate D2E/DX2 analytically  !
 ! D88   D(29,20,68,4)         178.261          calculate D2E/DX2 analytically  !
 ! D89   D(29,20,68,5)         162.2354         calculate D2E/DX2 analytically  !
 ! D90   D(29,20,68,17)         70.3779         calculate D2E/DX2 analytically  !
 ! D91   D(29,20,68,18)       -112.9542         calculate D2E/DX2 analytically  !
 ! D92   D(29,20,68,22)        -53.6437         calculate D2E/DX2 analytically  !
 ! D93   D(17,21,28,31)        176.253          calculate D2E/DX2 analytically  !
 ! D94   D(17,21,28,32)         56.4293         calculate D2E/DX2 analytically  !
 ! D95   D(17,21,28,33)        -64.5783         calculate D2E/DX2 analytically  !
 ! D96   D(26,21,28,31)         59.0711         calculate D2E/DX2 analytically  !
 ! D97   D(26,21,28,32)        -60.7526         calculate D2E/DX2 analytically  !
 ! D98   D(26,21,28,33)        178.2398         calculate D2E/DX2 analytically  !
 ! D99   D(27,21,28,31)        -61.7757         calculate D2E/DX2 analytically  !
 ! D100  D(27,21,28,32)        178.4006         calculate D2E/DX2 analytically  !
 ! D101  D(27,21,28,33)         57.393          calculate D2E/DX2 analytically  !
 ! D102  D(19,22,68,4)         -19.5725         calculate D2E/DX2 analytically  !
 ! D103  D(19,22,68,5)          56.9969         calculate D2E/DX2 analytically  !
 ! D104  D(19,22,68,16)       -121.1248         calculate D2E/DX2 analytically  !
 ! D105  D(19,22,68,17)        137.5212         calculate D2E/DX2 analytically  !
 ! D106  D(19,22,68,18)         -1.8649         calculate D2E/DX2 analytically  !
 ! D107  D(19,22,68,20)        -99.5959         calculate D2E/DX2 analytically  !
 ! D108  D(19,22,68,24)        -83.2993         calculate D2E/DX2 analytically  !
 ! D109  D(56,40,41,42)         68.5907         calculate D2E/DX2 analytically  !
 ! D110  D(56,40,41,43)        -48.4193         calculate D2E/DX2 analytically  !
 ! D111  D(56,40,41,52)       -167.3864         calculate D2E/DX2 analytically  !
 ! D112  D(57,40,41,42)        -54.2214         calculate D2E/DX2 analytically  !
 ! D113  D(57,40,41,43)       -171.2314         calculate D2E/DX2 analytically  !
 ! D114  D(57,40,41,52)         69.8015         calculate D2E/DX2 analytically  !
 ! D115  D(69,40,41,42)        178.0213         calculate D2E/DX2 analytically  !
 ! D116  D(69,40,41,43)         61.0112         calculate D2E/DX2 analytically  !
 ! D117  D(69,40,41,52)        -57.9558         calculate D2E/DX2 analytically  !
 ! D118  D(41,40,57,58)       -167.8538         calculate D2E/DX2 analytically  !
 ! D119  D(41,40,57,59)         14.3546         calculate D2E/DX2 analytically  !
 ! D120  D(56,40,57,58)         71.0919         calculate D2E/DX2 analytically  !
 ! D121  D(56,40,57,59)       -106.6996         calculate D2E/DX2 analytically  !
 ! D122  D(69,40,57,58)        -42.7222         calculate D2E/DX2 analytically  !
 ! D123  D(69,40,57,59)        139.4863         calculate D2E/DX2 analytically  !
 ! D124  D(41,40,69,1)          73.4006         calculate D2E/DX2 analytically  !
 ! D125  D(56,40,69,1)        -176.1272         calculate D2E/DX2 analytically  !
 ! D126  D(57,40,69,1)         -59.2055         calculate D2E/DX2 analytically  !
 ! D127  D(40,41,52,53)       -101.5006         calculate D2E/DX2 analytically  !
 ! D128  D(40,41,52,54)         70.5257         calculate D2E/DX2 analytically  !
 ! D129  D(42,41,52,53)         23.9943         calculate D2E/DX2 analytically  !
 ! D130  D(42,41,52,54)       -163.9794         calculate D2E/DX2 analytically  !
 ! D131  D(43,41,52,53)        141.7727         calculate D2E/DX2 analytically  !
 ! D132  D(43,41,52,54)        -46.201          calculate D2E/DX2 analytically  !
 ! D133  D(47,44,46,45)        178.7853         calculate D2E/DX2 analytically  !
 ! D134  D(47,44,46,49)         -0.0101         calculate D2E/DX2 analytically  !
 ! D135  D(54,44,46,45)         -1.7741         calculate D2E/DX2 analytically  !
 ! D136  D(54,44,46,49)        179.4305         calculate D2E/DX2 analytically  !
 ! D137  D(46,44,54,52)          5.853          calculate D2E/DX2 analytically  !
 ! D138  D(46,44,54,55)        156.5681         calculate D2E/DX2 analytically  !
 ! D139  D(47,44,54,52)       -174.6826         calculate D2E/DX2 analytically  !
 ! D140  D(47,44,54,55)        -23.9674         calculate D2E/DX2 analytically  !
 ! D141  D(48,45,46,44)       -179.913          calculate D2E/DX2 analytically  !
 ! D142  D(48,45,46,49)         -1.0993         calculate D2E/DX2 analytically  !
 ! D143  D(53,45,46,44)         -0.9171         calculate D2E/DX2 analytically  !
 ! D144  D(53,45,46,49)        177.8966         calculate D2E/DX2 analytically  !
 ! D145  D(46,45,53,52)         -0.7589         calculate D2E/DX2 analytically  !
 ! D146  D(48,45,53,52)        178.2923         calculate D2E/DX2 analytically  !
 ! D147  D(41,52,53,45)        176.9795         calculate D2E/DX2 analytically  !
 ! D148  D(54,52,53,45)          5.609          calculate D2E/DX2 analytically  !
 ! D149  D(41,52,54,44)       -179.2839         calculate D2E/DX2 analytically  !
 ! D150  D(41,52,54,55)         28.7978         calculate D2E/DX2 analytically  !
 ! D151  D(53,52,54,44)         -8.176          calculate D2E/DX2 analytically  !
 ! D152  D(53,52,54,55)       -160.0942         calculate D2E/DX2 analytically  !
 ! D153  D(40,57,58,60)       -177.9514         calculate D2E/DX2 analytically  !
 ! D154  D(40,57,58,61)          2.1814         calculate D2E/DX2 analytically  !
 ! D155  D(59,57,58,60)         -0.0124         calculate D2E/DX2 analytically  !
 ! D156  D(59,57,58,61)       -179.8797         calculate D2E/DX2 analytically  !
 ! D157  D(40,57,59,62)        176.9492         calculate D2E/DX2 analytically  !
 ! D158  D(40,57,59,63)         -3.9471         calculate D2E/DX2 analytically  !
 ! D159  D(58,57,59,62)         -0.7469         calculate D2E/DX2 analytically  !
 ! D160  D(58,57,59,63)        178.3568         calculate D2E/DX2 analytically  !
 ! D161  D(57,58,60,64)          0.8444         calculate D2E/DX2 analytically  !
 ! D162  D(57,58,60,65)       -179.5904         calculate D2E/DX2 analytically  !
 ! D163  D(61,58,60,64)       -179.2875         calculate D2E/DX2 analytically  !
 ! D164  D(61,58,60,65)          0.2777         calculate D2E/DX2 analytically  !
 ! D165  D(57,59,62,64)          0.6833         calculate D2E/DX2 analytically  !
 ! D166  D(57,59,62,66)       -179.6928         calculate D2E/DX2 analytically  !
 ! D167  D(63,59,62,64)       -178.4496         calculate D2E/DX2 analytically  !
 ! D168  D(63,59,62,66)          1.1742         calculate D2E/DX2 analytically  !
 ! D169  D(58,60,64,62)         -0.9096         calculate D2E/DX2 analytically  !
 ! D170  D(58,60,64,67)        179.4007         calculate D2E/DX2 analytically  !
 ! D171  D(65,60,64,62)        179.5289         calculate D2E/DX2 analytically  !
 ! D172  D(65,60,64,67)         -0.1608         calculate D2E/DX2 analytically  !
 ! D173  D(59,62,64,60)          0.1479         calculate D2E/DX2 analytically  !
 ! D174  D(59,62,64,67)        179.8373         calculate D2E/DX2 analytically  !
 ! D175  D(66,62,64,60)       -179.4723         calculate D2E/DX2 analytically  !
 ! D176  D(66,62,64,67)          0.2171         calculate D2E/DX2 analytically  !
 --------------------------------------------------------------------------------
 Trust Radius=3.00D-01 FncErr=1.00D-07 GrdErr=1.00D-06 EigMax=2.50D+02 EigMin=1.00D-04
 Number of steps in this run=    404 maximum allowed number of steps=    414.
 GradGradGradGradGradGradGradGradGradGradGradGradGradGradGradGradGradGrad

 Stoichiometry    C22H16F9N4O14S3Yb(2)
 Framework group  C1[X(C22H16F9N4O14S3Yb)]
 Deg. of freedom   201
 Full point group                 C1      NOp   1
 Largest Abelian subgroup         C1      NOp   1
 Largest concise Abelian subgroup C1      NOp   1
                         Standard orientation:                         
 ---------------------------------------------------------------------
 Center     Atomic      Atomic             Coordinates (Angstroms)
 Number     Number       Type             X           Y           Z
 ---------------------------------------------------------------------
      1          6           0       -1.840422   -0.554775    1.045034
      2          6           0       -1.687031    0.068266   -0.332442
      3          6           0       -0.513281   -0.985893    1.695161
      4          8           0        0.478976   -0.286636    1.676715
      5          8           0       -0.690161    0.658097   -0.696982
      6          8           0       -2.732033   -0.120928   -1.089232
      7          8           0       -0.547380   -2.113638    2.339881
      8          6           0       -2.728995    0.506781   -2.381673
      9          6           0        0.695843   -2.559528    2.910846
     10          1           0       -3.720158    0.325029   -2.810160
     11          1           0       -1.945018    0.051400   -2.999627
     12          1           0       -2.547370    1.584775   -2.264216
     13          1           0        0.487000   -3.528999    3.373219
     14          1           0        1.045506   -1.836870    3.658732
     15          1           0        1.439782   -2.648728    2.108958
     16          8           0        2.985885   -1.589381    0.566631
     17          8           0        1.351623   -0.906633   -2.317663
     18          8           0        1.097197    2.599067    0.922931
     19         16           0        1.991067    3.516080    0.175336
     20         16           0        3.740226   -0.900502    1.646238
     21         16           0        0.381780   -1.973654   -1.982378
     22          8           0        2.823724    2.742156   -0.778269
     23          8           0        2.651181    4.559228    0.932380
     24          8           0        3.440941    0.552459    1.618802
     25          8           0        3.771927   -1.551478    2.941610
     26          8           0        0.138001   -2.064571   -0.528423
     27          8           0       -0.810071   -2.033843   -2.817816
     28          6           0        1.278762   -3.530388   -2.352822
     29          6           0        5.467969   -0.972710    1.030485
     30          6           0        0.838370    4.401148   -0.947247
     31          9           0        0.510256   -4.555214   -2.003637
     32          9           0        2.410860   -3.586465   -1.676639
     33          9           0        1.535773   -3.607633   -3.648533
     34          9           0        5.534861   -0.396057   -0.164430
     35          9           0        5.860148   -2.233505    0.920333
     36          9           0        6.280186   -0.338394    1.860742
     37          9           0        0.097569    3.524326   -1.615677
     38          9           0        1.514458    5.138528   -1.814870
     39          9           0        0.034535    5.192761   -0.247593
     40          6           0       -3.963505    0.512491    1.760384
     41          6           0       -4.874173   -0.760236    1.636716
     42          6           0       -6.302623   -0.456857    1.448803
     43          6           0       -4.776870   -1.495908    2.920547
     44          6           0       -2.669376   -2.979805   -0.398493
     45          6           0       -4.542052   -2.137343   -1.644777
     46          6           0       -3.360403   -2.922897   -1.583144
     47          1           0       -1.766173   -3.575765   -0.268764
     48          1           0       -5.130453   -2.058405   -2.561427
     49          1           0       -3.031133   -3.479816   -2.460269
     50          7           0       -7.431480   -0.216261    1.392123
     51          7           0       -4.746563   -2.000997    3.959295
     52          7           0       -4.343781   -1.576795    0.526833
     53          7           0       -5.008189   -1.478932   -0.610865
     54          6           0       -3.147386   -2.219413    0.700711
     55          1           0       -2.892076   -2.504023    1.725048
     56          1           0       -4.238225    0.970320    2.723646
     57          6           0       -3.998957    1.580150    0.686457
     58          6           0       -2.964020    2.526648    0.762991
     59          6           0       -4.976403    1.707080   -0.305700
     60          6           0       -2.907496    3.586355   -0.141558
     61          1           0       -2.193345    2.435862    1.533676
     62          6           0       -4.922968    2.780857   -1.199680
     63          1           0       -5.780388    0.979426   -0.415033
     64          6           0       -3.894756    3.720851   -1.120904
     65          1           0       -2.093679    4.310173   -0.073912
     66          1           0       -5.693728    2.873633   -1.967413
     67          1           0       -3.858291    4.555294   -1.824336
     68         70           0        1.784739    0.475421   -0.277575
     69          8           0       -2.632592    0.027718    1.982923
 ---------------------------------------------------------------------
 Rotational constants (GHZ):           0.0650565           0.0411958           0.0332953
 General basis read from cards:  (5D, 7F)
 ======================================================================================================
                                       Pseudopotential Parameters
 ======================================================================================================
  Center     Atomic      Valence      Angular      Power
  Number     Number     Electrons     Momentum     of R      Exponent        Coefficient   SO-Coeffient
 ======================================================================================================
    1          6
                                   No pseudopotential on this center.
    2          6
                                   No pseudopotential on this center.
    3          6
                                   No pseudopotential on this center.
    4          8
                                   No pseudopotential on this center.
    5          8
                                   No pseudopotential on this center.
    6          8
                                   No pseudopotential on this center.
    7          8
                                   No pseudopotential on this center.
    8          6
                                   No pseudopotential on this center.
    9          6
                                   No pseudopotential on this center.
   10          1
                                   No pseudopotential on this center.
   11          1
                                   No pseudopotential on this center.
   12          1
                                   No pseudopotential on this center.
   13          1
                                   No pseudopotential on this center.
   14          1
                                   No pseudopotential on this center.
   15          1
                                   No pseudopotential on this center.
   16          8
                                   No pseudopotential on this center.
   17          8
                                   No pseudopotential on this center.
   18          8
                                   No pseudopotential on this center.
   19         16
                                   No pseudopotential on this center.
   20         16
                                   No pseudopotential on this center.
   21         16
                                   No pseudopotential on this center.
   22          8
                                   No pseudopotential on this center.
   23          8
                                   No pseudopotential on this center.
   24          8
                                   No pseudopotential on this center.
   25          8
                                   No pseudopotential on this center.
   26          8
                                   No pseudopotential on this center.
   27          8
                                   No pseudopotential on this center.
   28          6
                                   No pseudopotential on this center.
   29          6
                                   No pseudopotential on this center.
   30          6
                                   No pseudopotential on this center.
   31          9
                                   No pseudopotential on this center.
   32          9
                                   No pseudopotential on this center.
   33          9
                                   No pseudopotential on this center.
   34          9
                                   No pseudopotential on this center.
   35          9
                                   No pseudopotential on this center.
   36          9
                                   No pseudopotential on this center.
   37          9
                                   No pseudopotential on this center.
   38          9
                                   No pseudopotential on this center.
   39          9
                                   No pseudopotential on this center.
   40          6
                                   No pseudopotential on this center.
   41          6
                                   No pseudopotential on this center.
   42          6
                                   No pseudopotential on this center.
   43          6
                                   No pseudopotential on this center.
   44          6
                                   No pseudopotential on this center.
   45          6
                                   No pseudopotential on this center.
   46          6
                                   No pseudopotential on this center.
   47          1
                                   No pseudopotential on this center.
   48          1
                                   No pseudopotential on this center.
   49          1
                                   No pseudopotential on this center.
   50          7
                                   No pseudopotential on this center.
   51          7
                                   No pseudopotential on this center.
   52          7
                                   No pseudopotential on this center.
   53          7
                                   No pseudopotential on this center.
   54          6
                                   No pseudopotential on this center.
   55          1
                                   No pseudopotential on this center.
   56          1
                                   No pseudopotential on this center.
   57          6
                                   No pseudopotential on this center.
   58          6
                                   No pseudopotential on this center.
   59          6
                                   No pseudopotential on this center.
   60          6
                                   No pseudopotential on this center.
   61          1
                                   No pseudopotential on this center.
   62          6
                                   No pseudopotential on this center.
   63          1
                                   No pseudopotential on this center.
   64          6
                                   No pseudopotential on this center.
   65          1
                                   No pseudopotential on this center.
   66          1
                                   No pseudopotential on this center.
   67          1
                                   No pseudopotential on this center.
   68         70           42
                                      H and up 
                                                     2        1.0000000        0.00000000    0.00000000
                                      S - H
                                                     2       32.4244840      891.01377700    0.00000000
                                      P - H
                                                     2       18.6562320      264.03695300    0.00000000
                                      D - H
                                                     2       10.4902220       73.92391900    0.00000000
                                      F - H
                                                     2       20.7741830      -39.59217300    0.00000000
                                      G - H
                                                     2       28.4310280      -34.63863800    0.00000000
   69          8
                                   No pseudopotential on this center.
 ======================================================================================================
 There are   991 symmetry adapted cartesian basis functions of A   symmetry.
 There are   916 symmetry adapted basis functions of A   symmetry.
   916 basis functions,  1662 primitive gaussians,   991 cartesian basis functions
   230 alpha electrons      229 beta electrons
       nuclear repulsion energy     11687.7967735534 Hartrees.
 NAtoms=   69 NActive=   69 NUniq=   69 SFac= 1.00D+00 NAtFMM=   60 NAOKFM=T Big=T
 Integral buffers will be    131072 words long.
 Raffenetti 2 integral format.
 Two-electron integral symmetry is turned on.
 Force inversion solution in PCM.
 ------------------------------------------------------------------------------
 Polarizable Continuum Model (PCM)
 =================================
 Model                : PCM.
 Atomic radii         : SMD-Coulomb.
 Polarization charges : Total charges.
 Charge compensation  : None.
 Solution method      : Matrix inversion.
 Cavity type          : VdW (van der Waals Surface) (Alpha=1.000).
 Cavity algorithm     : GePol (No added spheres)
                        Default sphere list used, NSphG=   69.
                        Lebedev-Laikov grids with approx.  5.0 points / Ang**2.
                        Smoothing algorithm: York/Karplus (Gamma=1.0000).
                        Polarization charges: spherical gaussians, with
                                              point-specific exponents (IZeta= 3).
                        Self-potential: point-specific (ISelfS= 7).
                        Self-field    : sphere-specific E.n sum rule (ISelfD= 2).
 1st derivatives      : Analytical E(r).r(x)/FMM algorithm (CHGder, D1EAlg=3).
                        Cavity 1st derivative terms included.
 2nd derivatives      : Analytical E(r).r(xy)/FMM algorithm (CHGder, D2EAlg=3).
                        Cavity 2nd derivative terms included.
 Solvent              : DiChloroEthane, Eps=  10.125000 Eps(inf)=   2.087447
 ------------------------------------------------------------------------------
 ------------------------------------------------------------------------------
 Atomic radii for non-electrostatic terms: SMD-CDS.
 ------------------------------------------------------------------------------
 Nuclear repulsion after PCM non-electrostatic terms =    11687.8040846486 Hartrees.
 One-electron integrals computed using PRISM.
   1 Symmetry operations used in ECPInt.
 ECPInt:  NShTT=   77815 NPrTT=  297642 LenC2=   61084 LenP2D=  142704.
 LDataN:  DoStor=T MaxTD1= 9 Len=  602
 NBasis=   916 RedAO= T EigKep=  2.16D-04  NBF=   916
 NBsUse=   916 1.00D-06 EigRej= -1.00D+00 NBFU=   916
 Defaulting to unpruned grid for atomic number  70.
 ExpMin= 2.50D-02 ExpMax= 9.20D+04 ExpMxC= 1.38D+04 IAcc=3 IRadAn=         5 AccDes= 0.00D+00
 Harris functional with IExCor= 1009 and IRadAn=       5 diagonalized for initial guess.
 HarFok:  IExCor= 1009 AccDes= 0.00D+00 IRadAn=         5 IDoV= 1 UseB2=F ITyADJ=14
 ICtDFT=  3500011 ScaDFX=  1.000000  1.000000  1.000000  1.000000
 Defaulting to unpruned grid for atomic number  70.
 FoFCou: FMM=F IPFlag=           0 FMFlag=      100000 FMFlg1=        2001
         NFxFlg=           0 DoJE=T BraDBF=F KetDBF=T FulRan=T
         wScrn=  0.000000 ICntrl=       500 IOpCl=  0 I1Cent=   200000004 NGrid=           0
         NMat0=    1 NMatS0=      1 NMatT0=    0 NMatD0=    1 NMtDS0=    0 NMtDT0=    0
 Petite list used in FoFCou.
 Initial guess <Sx>= 0.0000 <Sy>= 0.0000 <Sz>= 0.5000 <S**2>= 0.7500 S= 0.5000
 Requested convergence on RMS density matrix=1.00D-08 within 500 cycles.
 Requested convergence on MAX density matrix=1.00D-06.
 Requested convergence on             energy=1.00D-06.
 No special actions if energy rises.
 Defaulting to unpruned grid for atomic number  70.
 Defaulting to unpruned grid for atomic number  70.
 Defaulting to unpruned grid for atomic number  70.
 Defaulting to unpruned grid for atomic number  70.
 Defaulting to unpruned grid for atomic number  70.
 Defaulting to unpruned grid for atomic number  70.
 Defaulting to unpruned grid for atomic number  70.
 Defaulting to unpruned grid for atomic number  70.
 Defaulting to unpruned grid for atomic number  70.
 Defaulting to unpruned grid for atomic number  70.
 Defaulting to unpruned grid for atomic number  70.
 Defaulting to unpruned grid for atomic number  70.
 Defaulting to unpruned grid for atomic number  70.
 Defaulting to unpruned grid for atomic number  70.
 Defaulting to unpruned grid for atomic number  70.
 Defaulting to unpruned grid for atomic number  70.
 Defaulting to unpruned grid for atomic number  70.
 Defaulting to unpruned grid for atomic number  70.
 Defaulting to unpruned grid for atomic number  70.
 Defaulting to unpruned grid for atomic number  70.
 Defaulting to unpruned grid for atomic number  70.
 Defaulting to unpruned grid for atomic number  70.
 Defaulting to unpruned grid for atomic number  70.
 Defaulting to unpruned grid for atomic number  70.
 Inv3:  Mode=1 IEnd=    66298203.
 Iteration    1 A*A^-1 deviation from unit magnitude is 6.66D-15 for   4683.
 Iteration    1 A*A^-1 deviation from orthogonality  is 4.22D-15 for   2836   1917.
 Iteration    1 A^-1*A deviation from unit magnitude is 6.66D-15 for   4683.
 Iteration    1 A^-1*A deviation from orthogonality  is 7.77D-14 for   2845   2836.
 EnCoef did     1 forward-backward iterations
 EnCoef did   100 forward-backward iterations
 EnCoef did     2 forward-backward iterations
 EnCoef did     2 forward-backward iterations
 EnCoef did     4 forward-backward iterations
 Restarting incremental Fock formation.
 Error on total polarization charges =  0.02860
 SCF Done:  E(UMN15) =  -5368.75810449     A.U. after   25 cycles
            NFock= 25  Conv=0.73D-08     -V/T= 2.0908
 <Sx>= 0.0000 <Sy>= 0.0000 <Sz>= 0.5000 <S**2>= 0.7610 S= 0.5055
 <L.S>=  0.00000000000    
 SMD-CDS (non-electrostatic) energy       (kcal/mol) =       4.59
 (included in total energy above)
 Annihilation of the first spin contaminant:
 S**2 before annihilation     0.7610,   after     0.7501
 DoSCS=F DFT=T ScalE2(SS,OS)=  1.000000  1.000000
 Range of M.O.s used for correlation:     1   916
 NBasis=   916 NAE=   230 NBE=   229 NFC=     0 NFV=     0
 NROrb=    916 NOA=   230 NOB=   229 NVA=   686 NVB=   687

 **** Warning!!: The largest alpha MO coefficient is  0.12747233D+02


 **** Warning!!: The largest beta MO coefficient is  0.12747233D+02

   1 Symmetry operations used in ECPInt.
 ECPInt:  NShTT=   77815 NPrTT=  297642 LenC2=   61084 LenP2D=  142704.
 LDataN:  DoStor=T MaxTD1=10 Len=  848
 Symmetrizing basis deriv contribution to polar:
 IMax=3 JMax=2 DiffMx= 0.00D+00
 G2DrvN: will do    70 centers at a time, making    1 passes.
 Calling FoFCou, ICntrl=  3107 FMM=T I1Cent=   0 AccDes= 0.00D+00.
 Defaulting to unpruned grid for atomic number  70.
 Defaulting to unpruned grid for atomic number  70.
 Defaulting to unpruned grid for atomic number  70.
 Defaulting to unpruned grid for atomic number  70.
 Defaulting to unpruned grid for atomic number  70.
 Defaulting to unpruned grid for atomic number  70.
 Defaulting to unpruned grid for atomic number  70.
 Defaulting to unpruned grid for atomic number  70.
 Defaulting to unpruned grid for atomic number  70.
 Defaulting to unpruned grid for atomic number  70.
 Defaulting to unpruned grid for atomic number  70.
 Defaulting to unpruned grid for atomic number  70.
 Defaulting to unpruned grid for atomic number  70.
 Defaulting to unpruned grid for atomic number  70.
 Defaulting to unpruned grid for atomic number  70.
 Defaulting to unpruned grid for atomic number  70.
 Defaulting to unpruned grid for atomic number  70.
 Defaulting to unpruned grid for atomic number  70.
 Defaulting to unpruned grid for atomic number  70.
 Defaulting to unpruned grid for atomic number  70.
 Defaulting to unpruned grid for atomic number  70.
 Defaulting to unpruned grid for atomic number  70.
 Defaulting to unpruned grid for atomic number  70.
 Defaulting to unpruned grid for atomic number  70.
 NEqPCM:  Using equilibrium solvation (IEInf=0, Eps=  10.1250, EpsInf=   2.0874)
 G2PCM: DoFxE=T DoFxN=T DoGrad=T DoDP/DQ/DG/TGxP=FFFF NFrqRd=   0 IEInf=0 SqF1=F DoCFld=F IF1Alg=4.
 End of G2Drv F.D. properties file   721 does not exist.
 End of G2Drv F.D. properties file   722 does not exist.
 End of G2Drv F.D. properties file   788 does not exist.
          IDoAtm=11111111111111111111111111111111111111111111111111
          IDoAtm=1111111111111111111
 NEqPCM:  Using equilibrium solvation (IEInf=0, Eps=  10.1250, EpsInf=   2.0874)
          Differentiating once with respect to nuclear coordinates.
 Defaulting to unpruned grid for atomic number  70.
 CalDSu exits because no D1Ps are significant.
 Defaulting to unpruned grid for atomic number  70.
 Defaulting to unpruned grid for atomic number  70.
 Defaulting to unpruned grid for atomic number  70.
 Defaulting to unpruned grid for atomic number  70.
 Defaulting to unpruned grid for atomic number  70.
 Defaulting to unpruned grid for atomic number  70.
 Defaulting to unpruned grid for atomic number  70.
 Defaulting to unpruned grid for atomic number  70.
 Defaulting to unpruned grid for atomic number  70.
 Defaulting to unpruned grid for atomic number  70.
 Defaulting to unpruned grid for atomic number  70.
 Defaulting to unpruned grid for atomic number  70.
 Defaulting to unpruned grid for atomic number  70.
 Defaulting to unpruned grid for atomic number  70.
 Defaulting to unpruned grid for atomic number  70.
 Defaulting to unpruned grid for atomic number  70.
 Defaulting to unpruned grid for atomic number  70.
 Defaulting to unpruned grid for atomic number  70.
 Defaulting to unpruned grid for atomic number  70.
 Defaulting to unpruned grid for atomic number  70.
 Defaulting to unpruned grid for atomic number  70.
 Defaulting to unpruned grid for atomic number  70.
 Defaulting to unpruned grid for atomic number  70.
 Defaulting to unpruned grid for atomic number  70.
          There are   210 degrees of freedom in the 1st order CPHF.  IDoFFX=6 NUNeed=     0.
    207 vectors produced by pass  0 Test12= 3.15D-13 1.00D-09 XBig12= 3.70D-01 1.53D-01.
 AX will form    72 AO Fock derivatives at one time.
    204 vectors produced by pass  1 Test12= 3.15D-13 1.00D-09 XBig12= 1.65D-01 4.28D-02.
    204 vectors produced by pass  2 Test12= 3.15D-13 1.00D-09 XBig12= 3.08D-03 5.79D-03.
    204 vectors produced by pass  3 Test12= 3.15D-13 1.00D-09 XBig12= 5.03D-05 8.79D-04.
    204 vectors produced by pass  4 Test12= 3.15D-13 1.00D-09 XBig12= 6.01D-07 8.99D-05.
    204 vectors produced by pass  5 Test12= 3.15D-13 1.00D-09 XBig12= 6.10D-09 1.30D-05.
    200 vectors produced by pass  6 Test12= 3.15D-13 1.00D-09 XBig12= 5.65D-11 6.97D-07.
    123 vectors produced by pass  7 Test12= 3.15D-13 1.00D-09 XBig12= 5.24D-13 1.10D-07.
     34 vectors produced by pass  8 Test12= 3.15D-13 1.00D-09 XBig12= 5.08D-15 3.81D-09.
      4 vectors produced by pass  9 Test12= 3.15D-13 1.00D-09 XBig12= 2.14D-15 1.68D-09.
      3 vectors produced by pass 10 Test12= 3.15D-13 1.00D-09 XBig12= 2.07D-15 1.75D-09.
 InvSVY:  IOpt=1 It=  1 EMax= 1.11D-15
 Solved reduced A of dimension  1591 with   210 vectors.
 End of Minotr F.D. properties file   721 does not exist.
 End of Minotr F.D. properties file   722 does not exist.
 End of Minotr F.D. properties file   788 does not exist.

 **********************************************************************

            Population analysis using the SCF density.

 **********************************************************************

 Orbital symmetries:
 Alpha Orbitals:
       Occupied  (A) (A) (A) (A) (A) (A) (A) (A) (A) (A) (A) (A)
                 (A) (A) (A) (A) (A) (A) (A) (A) (A) (A) (A) (A)
                 (A) (A) (A) (A) (A) (A) (A) (A) (A) (A) (A) (A)
                 (A) (A) (A) (A) (A) (A) (A) (A) (A) (A) (A) (A)
                 (A) (A) (A) (A) (A) (A) (A) (A) (A) (A) (A) (A)
                 (A) (A) (A) (A) (A) (A) (A) (A) (A) (A) (A) (A)
                 (A) (A) (A) (A) (A) (A) (A) (A) (A) (A) (A) (A)
                 (A) (A) (A) (A) (A) (A) (A) (A) (A) (A) (A) (A)
                 (A) (A) (A) (A) (A) (A) (A) (A) (A) (A) (A) (A)
                 (A) (A) (A) (A) (A) (A) (A) (A) (A) (A) (A) (A)
                 (A) (A) (A) (A) (A) (A) (A) (A) (A) (A) (A) (A)
                 (A) (A) (A) (A) (A) (A) (A) (A) (A) (A) (A) (A)
                 (A) (A) (A) (A) (A) (A) (A) (A) (A) (A) (A) (A)
                 (A) (A) (A) (A) (A) (A) (A) (A) (A) (A) (A) (A)
                 (A) (A) (A) (A) (A) (A) (A) (A) (A) (A) (A) (A)
                 (A) (A) (A) (A) (A) (A) (A) (A) (A) (A) (A) (A)
                 (A) (A) (A) (A) (A) (A) (A) (A) (A) (A) (A) (A)
                 (A) (A) (A) (A) (A) (A) (A) (A) (A) (A) (A) (A)
                 (A) (A) (A) (A) (A) (A) (A) (A) (A) (A) (A) (A)
                 (A) (A)
       Virtual   (A) (A) (A) (A) (A) (A) (A) (A) (A) (A) (A) (A)
                 (A) (A) (A) (A) (A) (A) (A) (A) (A) (A) (A) (A)
                 (A) (A) (A) (A) (A) (A) (A) (A) (A) (A) (A) (A)
                 (A) (A) (A) (A) (A) (A) (A) (A) (A) (A) (A) (A)
                 (A) (A) (A) (A) (A) (A) (A) (A) (A) (A) (A) (A)
                 (A) (A) (A) (A) (A) (A) (A) (A) (A) (A) (A) (A)
                 (A) (A) (A) (A) (A) (A) (A) (A) (A) (A) (A) (A)
                 (A) (A) (A) (A) (A) (A) (A) (A) (A) (A) (A) (A)
                 (A) (A) (A) (A) (A) (A) (A) (A) (A) (A) (A) (A)
                 (A) (A) (A) (A) (A) (A) (A) (A) (A) (A) (A) (A)
                 (A) (A) (A) (A) (A) (A) (A) (A) (A) (A) (A) (A)
                 (A) (A) (A) (A) (A) (A) (A) (A) (A) (A) (A) (A)
                 (A) (A) (A) (A) (A) (A) (A) (A) (A) (A) (A) (A)
                 (A) (A) (A) (A) (A) (A) (A) (A) (A) (A) (A) (A)
                 (A) (A) (A) (A) (A) (A) (A) (A) (A) (A) (A) (A)
                 (A) (A) (A) (A) (A) (A) (A) (A) (A) (A) (A) (A)
                 (A) (A) (A) (A) (A) (A) (A) (A) (A) (A) (A) (A)
                 (A) (A) (A) (A) (A) (A) (A) (A) (A) (A) (A) (A)
                 (A) (A) (A) (A) (A) (A) (A) (A) (A) (A) (A) (A)
                 (A) (A) (A) (A) (A) (A) (A) (A) (A) (A) (A) (A)
                 (A) (A) (A) (A) (A) (A) (A) (A) (A) (A) (A) (A)
                 (A) (A) (A) (A) (A) (A) (A) (A) (A) (A) (A) (A)
                 (A) (A) (A) (A) (A) (A) (A) (A) (A) (A) (A) (A)
                 (A) (A) (A) (A) (A) (A) (A) (A) (A) (A) (A) (A)
                 (A) (A) (A) (A) (A) (A) (A) (A) (A) (A) (A) (A)
                 (A) (A) (A) (A) (A) (A) (A) (A) (A) (A) (A) (A)
                 (A) (A) (A) (A) (A) (A) (A) (A) (A) (A) (A) (A)
                 (A) (A) (A) (A) (A) (A) (A) (A) (A) (A) (A) (A)
                 (A) (A) (A) (A) (A) (A) (A) (A) (A) (A) (A) (A)
                 (A) (A) (A) (A) (A) (A) (A) (A) (A) (A) (A) (A)
                 (A) (A) (A) (A) (A) (A) (A) (A) (A) (A) (A) (A)
                 (A) (A) (A) (A) (A) (A) (A) (A) (A) (A) (A) (A)
                 (A) (A) (A) (A) (A) (A) (A) (A) (A) (A) (A) (A)
                 (A) (A) (A) (A) (A) (A) (A) (A) (A) (A) (A) (A)
                 (A) (A) (A) (A) (A) (A) (A) (A) (A) (A) (A) (A)
                 (A) (A) (A) (A) (A) (A) (A) (A) (A) (A) (A) (A)
                 (A) (A) (A) (A) (A) (A) (A) (A) (A) (A) (A) (A)
                 (A) (A) (A) (A) (A) (A) (A) (A) (A) (A) (A) (A)
                 (A) (A) (A) (A) (A) (A) (A) (A) (A) (A) (A) (A)
                 (A) (A) (A) (A) (A) (A) (A) (A) (A) (A) (A) (A)
                 (A) (A) (A) (A) (A) (A) (A) (A) (A) (A) (A) (A)
                 (A) (A) (A) (A) (A) (A) (A) (A) (A) (A) (A) (A)
                 (A) (A) (A) (A) (A) (A) (A) (A) (A) (A) (A) (A)
                 (A) (A) (A) (A) (A) (A) (A) (A) (A) (A) (A) (A)
                 (A) (A) (A) (A) (A) (A) (A) (A) (A) (A) (A) (A)
                 (A) (A) (A) (A) (A) (A) (A) (A) (A) (A) (A) (A)
                 (A) (A) (A) (A) (A) (A) (A) (A) (A) (A) (A) (A)
                 (A) (A) (A) (A) (A) (A) (A) (A) (A) (A) (A) (A)
                 (A) (A) (A) (A) (A) (A) (A) (A) (A) (A) (A) (A)
                 (A) (A) (A) (A) (A) (A) (A) (A) (A) (A) (A) (A)
                 (A) (A) (A) (A) (A) (A) (A) (A) (A) (A) (A) (A)
                 (A) (A) (A) (A) (A) (A) (A) (A) (A) (A) (A) (A)
                 (A) (A) (A) (A) (A) (A) (A) (A) (A) (A) (A) (A)
                 (A) (A) (A) (A) (A) (A) (A) (A) (A) (A) (A) (A)
                 (A) (A) (A) (A) (A) (A) (A) (A) (A) (A) (A) (A)
                 (A) (A) (A) (A) (A) (A) (A) (A) (A) (A) (A) (A)
                 (A) (A) (A) (A) (A) (A) (A) (A) (A) (A) (A) (A)
                 (A) (A)
 Beta  Orbitals:
       Occupied  (A) (A) (A) (A) (A) (A) (A) (A) (A) (A) (A) (A)
                 (A) (A) (A) (A) (A) (A) (A) (A) (A) (A) (A) (A)
                 (A) (A) (A) (A) (A) (A) (A) (A) (A) (A) (A) (A)
                 (A) (A) (A) (A) (A) (A) (A) (A) (A) (A) (A) (A)
                 (A) (A) (A) (A) (A) (A) (A) (A) (A) (A) (A) (A)
                 (A) (A) (A) (A) (A) (A) (A) (A) (A) (A) (A) (A)
                 (A) (A) (A) (A) (A) (A) (A) (A) (A) (A) (A) (A)
                 (A) (A) (A) (A) (A) (A) (A) (A) (A) (A) (A) (A)
                 (A) (A) (A) (A) (A) (A) (A) (A) (A) (A) (A) (A)
                 (A) (A) (A) (A) (A) (A) (A) (A) (A) (A) (A) (A)
                 (A) (A) (A) (A) (A) (A) (A) (A) (A) (A) (A) (A)
                 (A) (A) (A) (A) (A) (A) (A) (A) (A) (A) (A) (A)
                 (A) (A) (A) (A) (A) (A) (A) (A) (A) (A) (A) (A)
                 (A) (A) (A) (A) (A) (A) (A) (A) (A) (A) (A) (A)
                 (A) (A) (A) (A) (A) (A) (A) (A) (A) (A) (A) (A)
                 (A) (A) (A) (A) (A) (A) (A) (A) (A) (A) (A) (A)
                 (A) (A) (A) (A) (A) (A) (A) (A) (A) (A) (A) (A)
                 (A) (A) (A) (A) (A) (A) (A) (A) (A) (A) (A) (A)
                 (A) (A) (A) (A) (A) (A) (A) (A) (A) (A) (A) (A)
                 (A)
       Virtual   (A) (A) (A) (A) (A) (A) (A) (A) (A) (A) (A) (A)
                 (A) (A) (A) (A) (A) (A) (A) (A) (A) (A) (A) (A)
                 (A) (A) (A) (A) (A) (A) (A) (A) (A) (A) (A) (A)
                 (A) (A) (A) (A) (A) (A) (A) (A) (A) (A) (A) (A)
                 (A) (A) (A) (A) (A) (A) (A) (A) (A) (A) (A) (A)
                 (A) (A) (A) (A) (A) (A) (A) (A) (A) (A) (A) (A)
                 (A) (A) (A) (A) (A) (A) (A) (A) (A) (A) (A) (A)
                 (A) (A) (A) (A) (A) (A) (A) (A) (A) (A) (A) (A)
                 (A) (A) (A) (A) (A) (A) (A) (A) (A) (A) (A) (A)
                 (A) (A) (A) (A) (A) (A) (A) (A) (A) (A) (A) (A)
                 (A) (A) (A) (A) (A) (A) (A) (A) (A) (A) (A) (A)
                 (A) (A) (A) (A) (A) (A) (A) (A) (A) (A) (A) (A)
                 (A) (A) (A) (A) (A) (A) (A) (A) (A) (A) (A) (A)
                 (A) (A) (A) (A) (A) (A) (A) (A) (A) (A) (A) (A)
                 (A) (A) (A) (A) (A) (A) (A) (A) (A) (A) (A) (A)
                 (A) (A) (A) (A) (A) (A) (A) (A) (A) (A) (A) (A)
                 (A) (A) (A) (A) (A) (A) (A) (A) (A) (A) (A) (A)
                 (A) (A) (A) (A) (A) (A) (A) (A) (A) (A) (A) (A)
                 (A) (A) (A) (A) (A) (A) (A) (A) (A) (A) (A) (A)
                 (A) (A) (A) (A) (A) (A) (A) (A) (A) (A) (A) (A)
                 (A) (A) (A) (A) (A) (A) (A) (A) (A) (A) (A) (A)
                 (A) (A) (A) (A) (A) (A) (A) (A) (A) (A) (A) (A)
                 (A) (A) (A) (A) (A) (A) (A) (A) (A) (A) (A) (A)
                 (A) (A) (A) (A) (A) (A) (A) (A) (A) (A) (A) (A)
                 (A) (A) (A) (A) (A) (A) (A) (A) (A) (A) (A) (A)
                 (A) (A) (A) (A) (A) (A) (A) (A) (A) (A) (A) (A)
                 (A) (A) (A) (A) (A) (A) (A) (A) (A) (A) (A) (A)
                 (A) (A) (A) (A) (A) (A) (A) (A) (A) (A) (A) (A)
                 (A) (A) (A) (A) (A) (A) (A) (A) (A) (A) (A) (A)
                 (A) (A) (A) (A) (A) (A) (A) (A) (A) (A) (A) (A)
                 (A) (A) (A) (A) (A) (A) (A) (A) (A) (A) (A) (A)
                 (A) (A) (A) (A) (A) (A) (A) (A) (A) (A) (A) (A)
                 (A) (A) (A) (A) (A) (A) (A) (A) (A) (A) (A) (A)
                 (A) (A) (A) (A) (A) (A) (A) (A) (A) (A) (A) (A)
                 (A) (A) (A) (A) (A) (A) (A) (A) (A) (A) (A) (A)
                 (A) (A) (A) (A) (A) (A) (A) (A) (A) (A) (A) (A)
                 (A) (A) (A) (A) (A) (A) (A) (A) (A) (A) (A) (A)
                 (A) (A) (A) (A) (A) (A) (A) (A) (A) (A) (A) (A)
                 (A) (A) (A) (A) (A) (A) (A) (A) (A) (A) (A) (A)
                 (A) (A) (A) (A) (A) (A) (A) (A) (A) (A) (A) (A)
                 (A) (A) (A) (A) (A) (A) (A) (A) (A) (A) (A) (A)
                 (A) (A) (A) (A) (A) (A) (A) (A) (A) (A) (A) (A)
                 (A) (A) (A) (A) (A) (A) (A) (A) (A) (A) (A) (A)
                 (A) (A) (A) (A) (A) (A) (A) (A) (A) (A) (A) (A)
                 (A) (A) (A) (A) (A) (A) (A) (A) (A) (A) (A) (A)
                 (A) (A) (A) (A) (A) (A) (A) (A) (A) (A) (A) (A)
                 (A) (A) (A) (A) (A) (A) (A) (A) (A) (A) (A) (A)
                 (A) (A) (A) (A) (A) (A) (A) (A) (A) (A) (A) (A)
                 (A) (A) (A) (A) (A) (A) (A) (A) (A) (A) (A) (A)
                 (A) (A) (A) (A) (A) (A) (A) (A) (A) (A) (A) (A)
                 (A) (A) (A) (A) (A) (A) (A) (A) (A) (A) (A) (A)
                 (A) (A) (A) (A) (A) (A) (A) (A) (A) (A) (A) (A)
                 (A) (A) (A) (A) (A) (A) (A) (A) (A) (A) (A) (A)
                 (A) (A) (A) (A) (A) (A) (A) (A) (A) (A) (A) (A)
                 (A) (A) (A) (A) (A) (A) (A) (A) (A) (A) (A) (A)
                 (A) (A) (A) (A) (A) (A) (A) (A) (A) (A) (A) (A)
                 (A) (A) (A) (A) (A) (A) (A) (A) (A) (A) (A) (A)
                 (A) (A) (A)
 The electronic state is 2-A.
 Alpha  occ. eigenvalues --  -88.04314 -88.03301 -88.03177 -24.33179 -24.33041
 Alpha  occ. eigenvalues --  -24.32966 -24.32952 -24.32941 -24.32657 -24.32644
 Alpha  occ. eigenvalues --  -24.32462 -24.32448 -18.92801 -18.90638 -18.89737
 Alpha  occ. eigenvalues --  -18.85995 -18.84748 -18.82350 -18.82042 -18.81624
 Alpha  occ. eigenvalues --  -18.81261 -18.81210 -18.81133 -18.80926 -18.80683
 Alpha  occ. eigenvalues --  -18.80368 -16.28553 -14.28343 -14.20883 -14.16017
 Alpha  occ. eigenvalues --  -14.15721 -10.91924 -10.91920 -10.91864 -10.31995
 Alpha  occ. eigenvalues --  -10.31340 -10.31182 -10.24557 -10.24239 -10.23783
 Alpha  occ. eigenvalues --  -10.20864 -10.19353 -10.18785 -10.15117 -10.15073
 Alpha  occ. eigenvalues --  -10.14904 -10.12776 -10.12237 -10.11798 -10.10923
 Alpha  occ. eigenvalues --  -10.09534 -10.07634 -10.07491 -10.06922 -10.06806
 Alpha  occ. eigenvalues --  -10.06742  -7.94038  -7.93043  -7.92921  -6.13542
 Alpha  occ. eigenvalues --   -6.13510  -6.13458  -6.12538  -6.12516  -6.12462
 Alpha  occ. eigenvalues --   -6.12416  -6.12396  -6.12347  -5.00231  -5.00189
 Alpha  occ. eigenvalues --   -5.00172  -5.00145  -5.00133  -1.95764  -1.36706
 Alpha  occ. eigenvalues --   -1.36341  -1.36060  -1.26697  -1.26684  -1.26400
 Alpha  occ. eigenvalues --   -1.26294  -1.26088  -1.26058  -1.20581  -1.18825
 Alpha  occ. eigenvalues --   -1.18296  -1.17885  -1.17309  -1.17196  -1.16414
 Alpha  occ. eigenvalues --   -1.09987  -1.08459  -1.04984  -1.04529  -1.04094
 Alpha  occ. eigenvalues --   -1.03938  -1.02890  -1.02761  -1.01297  -1.00448
 Alpha  occ. eigenvalues --   -1.00296  -0.99834  -0.98432  -0.97289  -0.93806
 Alpha  occ. eigenvalues --   -0.91731  -0.89493  -0.85939  -0.82936  -0.80580
 Alpha  occ. eigenvalues --   -0.79582  -0.78839  -0.78703  -0.78158  -0.78021
 Alpha  occ. eigenvalues --   -0.77647  -0.75734  -0.73368  -0.70896  -0.70351
 Alpha  occ. eigenvalues --   -0.70175  -0.68904  -0.68124  -0.67056  -0.66731
 Alpha  occ. eigenvalues --   -0.66636  -0.66442  -0.66317  -0.66109  -0.66055
 Alpha  occ. eigenvalues --   -0.65988  -0.64880  -0.63971  -0.63106  -0.62342
 Alpha  occ. eigenvalues --   -0.61706  -0.60716  -0.59951  -0.59308  -0.59140
 Alpha  occ. eigenvalues --   -0.58549  -0.58205  -0.57456  -0.57257  -0.56411
 Alpha  occ. eigenvalues --   -0.56147  -0.56091  -0.54982  -0.54725  -0.54690
 Alpha  occ. eigenvalues --   -0.54486  -0.54387  -0.54330  -0.54214  -0.53188
 Alpha  occ. eigenvalues --   -0.53002  -0.52687  -0.52459  -0.52361  -0.52225
 Alpha  occ. eigenvalues --   -0.51774  -0.51708  -0.51488  -0.51450  -0.51320
 Alpha  occ. eigenvalues --   -0.50815  -0.50619  -0.50464  -0.50285  -0.50125
 Alpha  occ. eigenvalues --   -0.49934  -0.49840  -0.49820  -0.49761  -0.48871
 Alpha  occ. eigenvalues --   -0.48235  -0.48185  -0.47861  -0.47712  -0.47406
 Alpha  occ. eigenvalues --   -0.47209  -0.46932  -0.46296  -0.45947  -0.45620
 Alpha  occ. eigenvalues --   -0.44914  -0.44270  -0.43876  -0.43589  -0.43370
 Alpha  occ. eigenvalues --   -0.42846  -0.42518  -0.42150  -0.41996  -0.41984
[...]
   D65        1.08058  -0.00001   0.00000  -0.00001  -0.00001   1.08057
   D66       -1.01518   0.00000   0.00000   0.00000   0.00000  -1.01517
   D67       -3.11240  -0.00000   0.00000  -0.00000  -0.00000  -3.11240
   D68       -3.06102  -0.00004   0.00000  -0.00003  -0.00003  -3.06106
   D69        1.12641  -0.00002   0.00000  -0.00002  -0.00002   1.12638
   D70       -0.97081  -0.00003   0.00000  -0.00003  -0.00003  -0.97084
   D71        1.00137  -0.00003   0.00000  -0.00002  -0.00002   1.00135
   D72       -1.08653  -0.00003   0.00000  -0.00002  -0.00002  -1.08655
   D73        3.09361  -0.00002   0.00000  -0.00002  -0.00002   3.09359
   D74       -0.98730   0.00005   0.00000   0.00004   0.00004  -0.98725
   D75       -3.07519   0.00005   0.00000   0.00004   0.00004  -3.07515
   D76        1.10494   0.00005   0.00000   0.00005   0.00005   1.10499
   D77       -3.14103  -0.00002   0.00000  -0.00002  -0.00002  -3.14104
   D78        1.05426  -0.00002   0.00000  -0.00002  -0.00002   1.05425
   D79       -1.04878  -0.00001   0.00000  -0.00001  -0.00001  -1.04880
   D80        0.00081  -0.00001   0.00000  -0.00001  -0.00001   0.00081
   D81       -2.08708  -0.00001   0.00000  -0.00001  -0.00001  -2.08709
   D82        2.09305  -0.00000   0.00000  -0.00000  -0.00000   2.09305
   D83       -0.02806  -0.00033   0.00000  -0.00031  -0.00031  -0.02837
   D84       -0.28968   0.00026   0.00000   0.00025   0.00025  -0.28943
   D85       -1.90284   0.00018   0.00000   0.00017   0.00017  -1.90267
   D86        1.17881  -0.00000   0.00000  -0.00000  -0.00000   1.17880
   D87        2.21602  -0.00005   0.00000  -0.00004  -0.00004   2.21598
   D88        3.11316  -0.00035   0.00000  -0.00033  -0.00033   3.11284
   D89        2.85154   0.00024   0.00000   0.00023   0.00023   2.85177
   D90        1.23838   0.00016   0.00000   0.00015   0.00015   1.23853
   D91       -1.96316  -0.00002   0.00000  -0.00002  -0.00002  -1.96318
   D92       -0.92595  -0.00006   0.00000  -0.00006  -0.00006  -0.92601
   D93        3.07700  -0.00028   0.00000  -0.00027  -0.00027   3.07673
   D94        0.98660  -0.00034   0.00000  -0.00032  -0.00032   0.98628
   D95       -1.12458  -0.00028   0.00000  -0.00027  -0.00027  -1.12485
   D96        1.03283   0.00047   0.00000   0.00044   0.00044   1.03328
   D97       -1.05757   0.00041   0.00000   0.00039   0.00039  -1.05718
   D98        3.11444   0.00046   0.00000   0.00044   0.00044   3.11487
   D99       -1.07643  -0.00013   0.00000  -0.00012  -0.00012  -1.07655
   D100       3.11635  -0.00019   0.00000  -0.00018  -0.00018   3.11618
   D101       1.00517  -0.00013   0.00000  -0.00013  -0.00013   1.00505
   D102      -0.32115   0.00034   0.00000   0.00032   0.00032  -0.32083
   D103       0.99565  -0.00039   0.00000  -0.00037  -0.00037   0.99529
   D104      -2.11906   0.00004   0.00000   0.00004   0.00004  -2.11902
   D105       2.39019   0.00005   0.00000   0.00005   0.00005   2.39024
   D106      -0.03083  -0.00003   0.00000  -0.00003  -0.00003  -0.03085
   D107      -1.73578   0.00004   0.00000   0.00003   0.00003  -1.73575
   D108      -1.44787  -0.00012   0.00000  -0.00012  -0.00012  -1.44799
   D109       1.19314  -0.00085   0.00000  -0.00073  -0.00067   1.19248
   D110      -0.85930  -0.00168   0.00000  -0.00162  -0.00165  -0.86095
   D111      -2.91142  -0.00473   0.00000  -0.00440  -0.00433  -2.91575
   D112      -0.95217   0.00404   0.00000   0.00384   0.00386  -0.94830
   D113      -3.00461   0.00322   0.00000   0.00295   0.00288  -3.00173
   D114       1.22645   0.00017   0.00000   0.00018   0.00020   1.22665
   D115       3.08954  -0.00559   0.00000  -0.00525  -0.00521   3.08433
   D116       1.03709  -0.00642   0.00000  -0.00614  -0.00619   1.03091
   D117      -1.01503  -0.00947   0.00000  -0.00892  -0.00887  -1.02390
   D118      -2.92392  -0.00285   0.00000  -0.00251  -0.00235  -2.92627
   D119       0.25916  -0.00097   0.00000  -0.00073  -0.00057   0.25859
   D120       1.24394  -0.00168   0.00000  -0.00158  -0.00159   1.24235
   D121      -1.85617   0.00020   0.00000   0.00020   0.00019  -1.85597
   D122      -0.75475   0.00204   0.00000   0.00174   0.00158  -0.75317
   D123       2.42833   0.00392   0.00000   0.00352   0.00336   2.43169
   D124       1.28834  -0.01316   0.00000  -0.01264  -0.01277   1.27557
   D125      -3.08157  -0.01023   0.00000  -0.00986  -0.00999  -3.09157
   D126      -1.03230  -0.01314   0.00000  -0.01256  -0.01266  -1.04497
   D127      -1.77680  -0.00105   0.00000  -0.00112  -0.00123  -1.77803
   D128       1.23369  -0.00266   0.00000  -0.00271  -0.00288   1.23082
   D129       0.42467  -0.00175   0.00000  -0.00173  -0.00179   0.42288
   D130      -2.84803  -0.00336   0.00000  -0.00333  -0.00344  -2.85147
   D131       2.47536  -0.00011   0.00000  -0.00004   0.00002   2.47538
   D132      -0.79734  -0.00171   0.00000  -0.00163  -0.00163  -0.79897
   D133       3.12060   0.00006   0.00000   0.00006   0.00007   3.12066
   D134       0.00005   0.00011   0.00000   0.00011   0.00011   0.00016
   D135      -0.02934  -0.00006   0.00000  -0.00005  -0.00005  -0.02940
   D136       3.13329  -0.00001   0.00000  -0.00001  -0.00001   3.13329
   D137       0.10201   0.00021   0.00000   0.00021   0.00022   0.10222
   D138       2.73030   0.00064   0.00000   0.00061   0.00061   2.73092
   D139      -3.04760   0.00009   0.00000   0.00010   0.00010  -3.04749
   D140      -0.41930   0.00053   0.00000   0.00050   0.00050  -0.41880
   D141      -3.14065  -0.00003   0.00000  -0.00004  -0.00005  -3.14069
   D142      -0.01981  -0.00009   0.00000  -0.00008  -0.00009  -0.01989
   D143      -0.01873   0.00011   0.00000   0.00010   0.00010  -0.01863
   D144       3.10211   0.00005   0.00000   0.00005   0.00005   3.10216
   D145      -0.01115  -0.00016   0.00000  -0.00017  -0.00018  -0.01133
   D146       3.11186  -0.00003   0.00000  -0.00004  -0.00005   3.11181
   D147       3.09692  -0.00137   0.00000  -0.00135  -0.00140   3.09552
   D148       0.09701   0.00036   0.00000   0.00038   0.00042   0.09743
   D149      -3.13905   0.00159   0.00000   0.00154   0.00157  -3.13747
   D150       0.49562   0.00086   0.00000   0.00086   0.00089   0.49651
   D151      -0.14287  -0.00036   0.00000  -0.00038  -0.00041  -0.14327
   D152      -2.79139  -0.00109   0.00000  -0.00106  -0.00109  -2.79248
   D153      -3.10381   0.00185   0.00000   0.00175   0.00175  -3.10206
   D154       0.03958   0.00137   0.00000   0.00129   0.00129   0.04087
   D155      -0.00114   0.00008   0.00000   0.00008   0.00008  -0.00106
   D156      -3.14093  -0.00041   0.00000  -0.00038  -0.00038  -3.14132
   D157       3.08718  -0.00204   0.00000  -0.00193  -0.00193   3.08525
   D158      -0.06782  -0.00155   0.00000  -0.00146  -0.00146  -0.06928
   D159      -0.01130  -0.00010   0.00000  -0.00009  -0.00009  -0.01140
   D160       3.11688   0.00039   0.00000   0.00037   0.00037   3.11726
   D161       0.01408   0.00005   0.00000   0.00005   0.00005   0.01412
   D162      -3.13310  -0.00016   0.00000  -0.00015  -0.00015  -3.13325
   D163      -3.12930   0.00053   0.00000   0.00050   0.00050  -3.12880
   D164       0.00671   0.00032   0.00000   0.00030   0.00030   0.00701
   D165       0.01093  -0.00001   0.00000  -0.00001  -0.00001   0.01093
   D166      -3.13698   0.00014   0.00000   0.00013   0.00013  -3.13684
   D167      -3.11770  -0.00048   0.00000  -0.00046  -0.00046  -3.11816
   D168       0.01757  -0.00033   0.00000  -0.00032  -0.00032   0.01726
   D169      -0.01447  -0.00015   0.00000  -0.00015  -0.00015  -0.01462
   D170       3.13242  -0.00009   0.00000  -0.00008  -0.00008   3.13234
   D171       3.13276   0.00006   0.00000   0.00005   0.00005   3.13281
   D172      -0.00353   0.00013   0.00000   0.00012   0.00012  -0.00341
   D173       0.00199   0.00014   0.00000   0.00013   0.00013   0.00212
   D174       3.13828   0.00007   0.00000   0.00006   0.00006   3.13835
   D175      -3.13321  -0.00001   0.00000  -0.00001  -0.00001  -3.13323
   D176       0.00307  -0.00008   0.00000  -0.00008  -0.00008   0.00300
         Item               Value     Threshold  Converged?
 Maximum Force            0.052800     0.000450     NO 
 RMS     Force            0.003717     0.000300     NO 
 Maximum Displacement     0.416016     0.001800     NO 
 RMS     Displacement     0.101071     0.001200     NO 
 Predicted change in Energy=-1.903584D-02
 GradGradGradGradGradGradGradGradGradGradGradGradGradGradGradGradGradGrad

 Stoichiometry    C22H16F9N4O14S3Yb(2)
 Framework group  C1[X(C22H16F9N4O14S3Yb)]
 Deg. of freedom   201
 Full point group                 C1      NOp   1
 Largest Abelian subgroup         C1      NOp   1
 Largest concise Abelian subgroup C1      NOp   1
                         Standard orientation:                         
 ---------------------------------------------------------------------
 Center     Atomic      Atomic             Coordinates (Angstroms)
 Number     Number       Type             X           Y           Z
 ---------------------------------------------------------------------
      1          6           0       -1.816655   -0.541781    0.941330
      2          6           0       -1.657644    0.106903   -0.422448
      3          6           0       -0.526478   -0.995853    1.601925
      4          8           0        0.462776   -0.293895    1.631250
      5          8           0       -0.647047    0.688749   -0.762757
      6          8           0       -2.700232   -0.056752   -1.189056
      7          8           0       -0.637074   -2.149266    2.202037
      8          6           0       -2.683825    0.587035   -2.472849
      9          6           0        0.563099   -2.656508    2.815335
     10          1           0       -3.673354    0.419040   -2.911342
     11          1           0       -1.898772    0.132862   -3.090626
     12          1           0       -2.493122    1.660936   -2.340521
     13          1           0        0.300361   -3.630774    3.238088
     14          1           0        0.901043   -1.968174    3.600402
     15          1           0        1.341109   -2.749277    2.046057
     16          8           0        3.005496   -1.575679    0.594849
     17          8           0        1.442919   -0.887455   -2.343383
     18          8           0        1.088223    2.615573    0.885091
     19         16           0        1.980789    3.540036    0.151003
     20         16           0        3.725140   -0.888745    1.697824
     21         16           0        0.448909   -1.937323   -2.029470
     22          8           0        2.842125    2.770333   -0.780876
     23          8           0        2.614402    4.598864    0.907864
     24          8           0        3.416268    0.560525    1.669377
     25          8           0        3.717323   -1.545617    2.990017
     26          8           0        0.185818   -2.032666   -0.577944
     27          8           0       -0.734031   -1.968443   -2.880829
     28          6           0        1.319081   -3.509345   -2.399036
     29          6           0        5.472160   -0.944826    1.136693
     30          6           0        0.825981    4.401187   -0.989917
     31          9           0        0.525524   -4.521705   -2.068421
     32          9           0        2.439507   -3.593115   -1.706485
     33          9           0        1.594742   -3.582220   -3.690831
     34          9           0        5.573934   -0.358872   -0.050874
     35          9           0        5.875981   -2.201662    1.030196
     36          9           0        6.252760   -0.310750    1.996796
     37          9           0        0.112877    3.509824   -1.669964
     38          9           0        1.498193    5.153894   -1.847006
     39          9           0       -0.003573    5.174719   -0.299943
     40          6           0       -3.929035    0.459309    1.799478
     41          6           0       -4.775858   -0.857402    1.686270
     42          6           0       -6.228728   -0.622326    1.626335
     43          6           0       -4.515932   -1.639704    2.916327
     44          6           0       -2.674627   -2.962834   -0.574821
     45          6           0       -4.677769   -2.176819   -1.640645
     46          6           0       -3.468053   -2.919389   -1.693178
     47          1           0       -1.743538   -3.526683   -0.534157
     48          1           0       -5.346599   -2.109575   -2.501130
     49          1           0       -3.196595   -3.455490   -2.602585
     50          7           0       -7.369091   -0.438794    1.669354
     51          7           0       -4.319440   -2.236881    3.886413
     52          7           0       -4.313364   -1.632805    0.514679
     53          7           0       -5.076667   -1.548128   -0.560204
     54          6           0       -3.082833   -2.232522    0.572660
     55          1           0       -2.728688   -2.520854    1.566146
     56          1           0       -4.151615    0.861902    2.799731
     57          6           0       -4.101048    1.574184    0.787064
     58          6           0       -3.116041    2.574504    0.823828
     59          6           0       -5.166451    1.690270   -0.112384
     60          6           0       -3.196142    3.675300   -0.029279
     61          1           0       -2.278255    2.494819    1.522411
     62          6           0       -5.248882    2.803010   -0.953971
     63          1           0       -5.938880    0.925217   -0.187820
     64          6           0       -4.269586    3.796245   -0.915470
     65          1           0       -2.418939    4.440171    0.005789
     66          1           0       -6.087520    2.884470   -1.648513
     67          1           0       -4.338878    4.661419   -1.578112
     68         70           0        1.827544    0.488651   -0.278034
     69          8           0       -2.582121   -0.003725    1.921420
 ---------------------------------------------------------------------
 Rotational constants (GHZ):           0.0641941           0.0407777           0.0330252
 Basis read from rwf:  (5D, 7F)
 Pseudo-potential data read from rwf file.
 There are   991 symmetry adapted cartesian basis functions of A   symmetry.
 There are   916 symmetry adapted basis functions of A   symmetry.
   916 basis functions,  1662 primitive gaussians,   991 cartesian basis functions
   230 alpha electrons      229 beta electrons
       nuclear repulsion energy     11637.6425255310 Hartrees.
 NAtoms=   69 NActive=   69 NUniq=   69 SFac= 1.00D+00 NAtFMM=   60 NAOKFM=T Big=T
 Integral buffers will be    131072 words long.
 Raffenetti 2 integral format.
 Two-electron integral symmetry is turned on.
 ------------------------------------------------------------------------------
 Polarizable Continuum Model (PCM)
 =================================
 Model                : PCM.
 Atomic radii         : SMD-Coulomb.
 Polarization charges : Total charges.
 Charge compensation  : None.
 Solution method      : Matrix inversion.
 Cavity type          : VdW (van der Waals Surface) (Alpha=1.000).
 Cavity algorithm     : GePol (No added spheres)
                        Default sphere list used, NSphG=   69.
                        Lebedev-Laikov grids with approx.  5.0 points / Ang**2.
                        Smoothing algorithm: York/Karplus (Gamma=1.0000).
                        Polarization charges: spherical gaussians, with
                                              point-specific exponents (IZeta= 3).
                        Self-potential: point-specific (ISelfS= 7).
                        Self-field    : sphere-specific E.n sum rule (ISelfD= 2).
 1st derivatives      : Analytical E(r).r(x)/FMM algorithm (CHGder, D1EAlg=3).
                        Cavity 1st derivative terms included.
 Solvent              : DiChloroEthane, Eps=  10.125000 Eps(inf)=   2.087447
 ------------------------------------------------------------------------------
 ------------------------------------------------------------------------------
 Atomic radii for non-electrostatic terms: SMD-CDS.
 ------------------------------------------------------------------------------
 Nuclear repulsion after PCM non-electrostatic terms =    11637.6497618185 Hartrees.
 One-electron integrals computed using PRISM.
   1 Symmetry operations used in ECPInt.
 ECPInt:  NShTT=   77815 NPrTT=  297642 LenC2=   60843 LenP2D=  141944.
 LDataN:  DoStor=T MaxTD1= 9 Len=  602
 NBasis=   916 RedAO= T EigKep=  2.14D-04  NBF=   916
 NBsUse=   916 1.00D-06 EigRej= -1.00D+00 NBFU=   916
 Defaulting to unpruned grid for atomic number  70.
 Initial guess from the checkpoint file:  "ts-min.chk"
 B after Tr=    -0.000000   -0.000000    0.000000
         Rot=    0.999969    0.002798    0.001267   -0.007300 Ang=   0.91 deg.
 Initial guess <Sx>= 0.0000 <Sy>= 0.0000 <Sz>= 0.5000 <S**2>= 0.7612 S= 0.5056
 ExpMin= 2.50D-02 ExpMax= 9.20D+04 ExpMxC= 1.38D+04 IAcc=3 IRadAn=         5 AccDes= 0.00D+00
 Harris functional with IExCor= 1009 and IRadAn=       5 diagonalized for initial guess.
 HarFok:  IExCor= 1009 AccDes= 0.00D+00 IRadAn=         5 IDoV= 1 UseB2=F ITyADJ=14
 ICtDFT=  3500011 ScaDFX=  1.000000  1.000000  1.000000  1.000000
 Defaulting to unpruned grid for atomic number  70.
 FoFCou: FMM=F IPFlag=           0 FMFlag=      100000 FMFlg1=        2001
         NFxFlg=           0 DoJE=T BraDBF=F KetDBF=T FulRan=T
         wScrn=  0.000000 ICntrl=       500 IOpCl=  0 I1Cent=   200000004 NGrid=           0
         NMat0=    1 NMatS0=      1 NMatT0=    0 NMatD0=    1 NMtDS0=    0 NMtDT0=    0
 Petite list used in FoFCou.
 Requested convergence on RMS density matrix=1.00D-08 within 500 cycles.
 Requested convergence on MAX density matrix=1.00D-06.
 Requested convergence on             energy=1.00D-06.
 No special actions if energy rises.
 Defaulting to unpruned grid for atomic number  70.
 Defaulting to unpruned grid for atomic number  70.
 Defaulting to unpruned grid for atomic number  70.
 Defaulting to unpruned grid for atomic number  70.
 Defaulting to unpruned grid for atomic number  70.
 Defaulting to unpruned grid for atomic number  70.
 Defaulting to unpruned grid for atomic number  70.
 Defaulting to unpruned grid for atomic number  70.
 Defaulting to unpruned grid for atomic number  70.
 Defaulting to unpruned grid for atomic number  70.
 Defaulting to unpruned grid for atomic number  70.
 Defaulting to unpruned grid for atomic number  70.
 Defaulting to unpruned grid for atomic number  70.
 Defaulting to unpruned grid for atomic number  70.
 Defaulting to unpruned grid for atomic number  70.
 Defaulting to unpruned grid for atomic number  70.
 Defaulting to unpruned grid for atomic number  70.
 Defaulting to unpruned grid for atomic number  70.
 Defaulting to unpruned grid for atomic number  70.
 Defaulting to unpruned grid for atomic number  70.
 Defaulting to unpruned grid for atomic number  70.
 Defaulting to unpruned grid for atomic number  70.
 Defaulting to unpruned grid for atomic number  70.
 Defaulting to unpruned grid for atomic number  70.
 Inv3:  Mode=1 IEnd=    68287323.
 Iteration    1 A*A^-1 deviation from unit magnitude is 8.66D-15 for   4765.
 Iteration    1 A*A^-1 deviation from orthogonality  is 4.36D-15 for   4767   4302.
 Iteration    1 A^-1*A deviation from unit magnitude is 8.66D-15 for   4765.
 Iteration    1 A^-1*A deviation from orthogonality  is 3.64D-14 for   1862   1853.
 Error on total polarization charges =  0.02939
 SCF Done:  E(UMN15) =  -5368.76345212     A.U. after   16 cycles
            NFock= 16  Conv=0.55D-08     -V/T= 2.0908
 <Sx>= 0.0000 <Sy>= 0.0000 <Sz>= 0.5000 <S**2>= 0.7608 S= 0.5054
 <L.S>=  0.00000000000    
 SMD-CDS (non-electrostatic) energy       (kcal/mol) =       4.54
 (included in total energy above)
 Annihilation of the first spin contaminant:
 S**2 before annihilation     0.7608,   after     0.7501
