 Entering Gaussian System, Link 0=/sysapps/ubuntu-applications/gaussian-new/avx/g16//g16
 Input=i3-major.in
 Output=i3-major.log
 Initial command:
 /sysapps/ubuntu-applications/gaussian-new/avx/g16/l1.exe "/data/temp-scratch/sgozem/298344/Gau-1288610.inp" -scrdir="/data/temp-scratch/sgozem/298344/"
 Entering Link 1 = /sysapps/ubuntu-applications/gaussian-new/avx/g16/l1.exe PID=   1288612.
  
 Copyright (c) 1988,1990,1992,1993,1995,1998,2003,2009,2016,
            Gaussian, Inc.  All Rights Reserved.
  
 This is part of the Gaussian(R) 16 program.  It is based on
 the Gaussian(R) 09 system (copyright 2009, Gaussian, Inc.),
 the Gaussian(R) 03 system (copyright 2003, Gaussian, Inc.),
 the Gaussian(R) 98 system (copyright 1998, Gaussian, Inc.),
 the Gaussian(R) 94 system (copyright 1995, Gaussian, Inc.),
 the Gaussian 92(TM) system (copyright 1992, Gaussian, Inc.),
 the Gaussian 90(TM) system (copyright 1990, Gaussian, Inc.),
 the Gaussian 88(TM) system (copyright 1988, Gaussian, Inc.),
 the Gaussian 86(TM) system (copyright 1986, Carnegie Mellon
 University), and the Gaussian 82(TM) system (copyright 1983,
 Carnegie Mellon University). Gaussian is a federally registered
 trademark of Gaussian, Inc.
  
 This software contains proprietary and confidential information,
 including trade secrets, belonging to Gaussian, Inc.
  
 This software is provided under written license and may be
 used, copied, transmitted, or stored only in accord with that
 written license.
  
 The following legend is applicable only to US Government
 contracts under FAR:
  
                    RESTRICTED RIGHTS LEGEND
  
 Use, reproduction and disclosure by the US Government is
 subject to restrictions as set forth in subparagraphs (a)
 and (c) of the Commercial Computer Software - Restricted
 Rights clause in FAR 52.227-19.
  
 Gaussian, Inc.
 340 Quinnipiac St., Bldg. 40, Wallingford CT 06492
  
  
 ---------------------------------------------------------------
 Warning -- This program may not be used in any manner that
 competes with the business of Gaussian, Inc. or will provide
 assistance to any competitor of Gaussian, Inc.  The licensee
 of this program is prohibited from giving any competitor of
 Gaussian, Inc. access to this program.  By using this program,
 the user acknowledges that Gaussian, Inc. is engaged in the
 business of creating and licensing software in the field of
 computational chemistry and represents and warrants to the
 licensee that it is not a competitor of Gaussian, Inc. and that
 it will not use this program in any manner prohibited above.
 ---------------------------------------------------------------
  

 Cite this work as:
 Gaussian 16, Revision A.03,
 M. J. Frisch, G. W. Trucks, H. B. Schlegel, G. E. Scuseria, 
 M. A. Robb, J. R. Cheeseman, G. Scalmani, V. Barone, 
 G. A. Petersson, H. Nakatsuji, X. Li, M. Caricato, A. V. Marenich, 
 J. Bloino, B. G. Janesko, R. Gomperts, B. Mennucci, H. P. Hratchian, 
 J. V. Ortiz, A. F. Izmaylov, J. L. Sonnenberg, D. Williams-Young, 
 F. Ding, F. Lipparini, F. Egidi, J. Goings, B. Peng, A. Petrone, 
 T. Henderson, D. Ranasinghe, V. G. Zakrzewski, J. Gao, N. Rega, 
 G. Zheng, W. Liang, M. Hada, M. Ehara, K. Toyota, R. Fukuda, 
 J. Hasegawa, M. Ishida, T. Nakajima, Y. Honda, O. Kitao, H. Nakai, 
 T. Vreven, K. Throssell, J. A. Montgomery, Jr., J. E. Peralta, 
 F. Ogliaro, M. J. Bearpark, J. J. Heyd, E. N. Brothers, K. N. Kudin, 
 V. N. Staroverov, T. A. Keith, R. Kobayashi, J. Normand, 
 K. Raghavachari, A. P. Rendell, J. C. Burant, S. S. Iyengar, 
 J. Tomasi, M. Cossi, J. M. Millam, M. Klene, C. Adamo, R. Cammi, 
 J. W. Ochterski, R. L. Martin, K. Morokuma, O. Farkas, 
 J. B. Foresman, and D. J. Fox, Gaussian, Inc., Wallingford CT, 2016.
 
 ******************************************
 Gaussian 16:  ES64L-G16RevA.03 25-Dec-2016
                28-Apr-2025 
 ******************************************
 %chk=i3-major.chk
 %mem=616Gb
 %nprocshared=24
 Will use up to   24 processors via shared memory.
 ----------------------------------------------------------------------
 #P UMN15/genecp scf=(maxcyc=500) opt=tight freq scrf=(smd,solvent=DiCh
 loroEthane)
 ----------------------------------------------------------------------
 1/7=10,18=20,19=15,26=3,38=1/1,3;
 2/9=110,12=2,17=6,18=5,40=1/2;
 3/5=7,11=2,16=1,17=8,25=1,30=1,70=32201,71=1,72=10,74=-73,116=2/1,2,3;
 4//1;
 5/5=2,7=500,38=5,53=10/2;
 6/7=2,8=2,9=2,10=2,28=1/1;
 7//1,2,3,16;
 1/7=10,18=20,19=15,26=3/3(2);
 2/9=110/2;
 99//99;
 2/9=110/2;
 3/5=7,6=1,11=2,16=1,17=8,25=1,30=1,70=32205,71=1,72=10,74=-73,82=7,116=2/1,2,3;
 4/5=5,16=3,69=1/1;
 5/5=2,7=500,38=5,53=10/2;
 7//1,2,3,16;
 1/7=10,18=20,19=15,26=3/3(-5);
 2/9=110/2;
 6/7=2,8=2,9=2,10=2,19=2,28=1/1;
 99/9=1/99;
 Leave Link    1 at Mon Apr 28 02:07:56 2025, MaxMem= 82678120448 cpu:               6.0 elap:               0.3
 (Enter /sysapps/ubuntu-applications/gaussian-new/avx/g16/l101.exe)
 ---
 Opt
 ---
 Symbolic Z-matrix:
 Charge =  0 Multiplicity = 1
 C                    -5.59092   0.74532   0.11495 
 C                    -6.70628   0.72828  -0.7317 
 C                    -7.72834   1.66226  -0.55841 
 C                    -7.63443   2.6202    0.45451 
 C                    -6.51807   2.64276   1.29454 
 C                    -5.49583   1.70693   1.129 
 C                    -2.10796  -0.47942   0.44935 
 C                    -1.43023  -0.62668  -0.91803 
 C                    -1.18242   0.2015    1.44388 
 H                    -6.76884  -0.01752  -1.52929 
 H                    -8.59587   1.64704  -1.22157 
 H                    -8.43178   3.35513   0.5862 
 H                    -6.4407    3.39489   2.08269 
 H                    -4.61546   1.72258   1.77548 
 O                    -0.00735  -0.16849   1.5655 
 O                    -0.22351  -0.54142  -1.12541 
 O                    -2.27896  -0.93713  -1.84448 
 O                    -1.7284    1.09233   2.19008 
 C                    -1.76761  -1.32833  -3.13402 
 C                    -0.88807   1.75249   3.15918 
 H                    -2.63819  -1.62645  -3.72508 
 H                    -1.07325  -2.17026  -3.00368 
 H                    -1.24868  -0.48312  -3.60094 
 H                    -1.51447   2.51565   3.62862 
 H                    -0.03157   2.20844   2.64415 
 H                    -0.54119   1.02122   3.9004 
 O                     3.28737  -0.37539   1.52767 
 O                     2.81488  -0.93128  -1.54947 
 O                     0.07838   2.06537  -0.03329 
 S                     0.8535    2.78007  -1.09136 
 S                     3.62666   1.02271   1.95049 
 S                     2.62169  -2.33028  -1.03525 
 O                     1.87891   1.7908   -1.56288 
 O                     1.29784   4.12081  -0.81941 
 O                     2.54112   1.86185   1.34996 
 O                     3.9917    1.25167   3.31962 
 O                     1.72711  -2.18465   0.1494 
 O                     2.28998  -3.34619  -2.00042 
 C                     4.29028  -2.79574  -0.33424 
 C                     5.07841   1.40784   0.8873 
 C                    -0.31174   2.92712  -2.51216 
 F                     4.13127  -3.26616   0.88504 
 F                     5.07887  -1.73988  -0.30769 
 F                     4.82179  -3.72371  -1.10439 
 F                     4.70805   1.20024  -0.36995 
 F                     6.0796    0.61083   1.19425 
 F                     5.43351   2.66479   1.04513 
 F                    -0.95338   1.78217  -2.68952 
 F                     0.37144   3.22228  -3.59884 
 F                    -1.18143   3.8821   -2.25419 
 C                    -4.51932  -0.29739  -0.05567 
 H                    -4.47458  -0.63831  -1.10296 
 C                    -4.76171  -1.59808   0.7744 
 C                    -6.00373  -2.26276   0.33894 
 C                    -4.87414  -1.25717   2.21106 
 C                    -1.25473  -2.90661   0.76213 
 C                    -2.67253  -3.87577  -0.94673 
 C                    -1.40335  -3.7994   -0.23105 
 H                    -0.33134  -2.82145   1.33544 
 H                    -2.78741  -4.51397  -1.82619 
 H                    -0.59528  -4.482    -0.50043 
 N                    -7.00958  -2.7261    0.00592 
 N                    -4.94362  -0.95397   3.32526 
 N                    -3.61471  -2.47735   0.56947 
 N                    -3.7153   -3.2282   -0.56006 
 C                    -2.36245  -1.93757   1.05431 
 H                    -2.46573  -1.77644   2.14104 
 Lu                    1.59882   0.17044   0.03463 
 O                    -3.28729   0.2555    0.36853 
 
 ITRead=  0  0  0  0  0  0  0  0  0  0  0  0  0  0  0  0  0  0  0  0
 ITRead=  0  0  0  0  0  0  0  0  0  0  0  0  0  0  0  0  0  0  0  0
 ITRead=  0  0  0  0  0  0  0  0  0  0  0  0  0  0  0  0  0  0  0  0
 ITRead=  0  0  0  0  0  0  0  0  0
 MicOpt= -1 -1 -1 -1 -1 -1 -1 -1 -1 -1 -1 -1 -1 -1 -1 -1 -1 -1 -1 -1
 MicOpt= -1 -1 -1 -1 -1 -1 -1 -1 -1 -1 -1 -1 -1 -1 -1 -1 -1 -1 -1 -1
 MicOpt= -1 -1 -1 -1 -1 -1 -1 -1 -1 -1 -1 -1 -1 -1 -1 -1 -1 -1 -1 -1
 MicOpt= -1 -1 -1 -1 -1 -1 -1 -1 -1
 NAtoms=     69 NQM=       69 NQMF=       0 NMMI=      0 NMMIF=      0
                NMic=       0 NMicF=      0.
                    Isotopes and Nuclear Properties:
 (Nuclear quadrupole moments (NQMom) in fm**2, nuclear magnetic moments (NMagM)
  in nuclear magnetons)

  Atom         1           2           3           4           5           6           7           8           9          10
 IAtWgt=          12          12          12          12          12          12          12          12          12           1
 AtmWgt=  12.0000000  12.0000000  12.0000000  12.0000000  12.0000000  12.0000000  12.0000000  12.0000000  12.0000000   1.0078250
 NucSpn=           0           0           0           0           0           0           0           0           0           1
 AtZEff=  -0.0000000  -0.0000000  -0.0000000  -0.0000000  -0.0000000  -0.0000000  -0.0000000  -0.0000000  -0.0000000  -0.0000000
 NQMom=    0.0000000   0.0000000   0.0000000   0.0000000   0.0000000   0.0000000   0.0000000   0.0000000   0.0000000   0.0000000
 NMagM=    0.0000000   0.0000000   0.0000000   0.0000000   0.0000000   0.0000000   0.0000000   0.0000000   0.0000000   2.7928460
 AtZNuc=   6.0000000   6.0000000   6.0000000   6.0000000   6.0000000   6.0000000   6.0000000   6.0000000   6.0000000   1.0000000

  Atom        11          12          13          14          15          16          17          18          19          20
 IAtWgt=           1           1           1           1          16          16          16          16          12          12
 AtmWgt=   1.0078250   1.0078250   1.0078250   1.0078250  15.9949146  15.9949146  15.9949146  15.9949146  12.0000000  12.0000000
 NucSpn=           1           1           1           1           0           0           0           0           0           0
 AtZEff=  -0.0000000  -0.0000000  -0.0000000  -0.0000000  -0.0000000  -0.0000000  -0.0000000  -0.0000000  -0.0000000  -0.0000000
 NQMom=    0.0000000   0.0000000   0.0000000   0.0000000   0.0000000   0.0000000   0.0000000   0.0000000   0.0000000   0.0000000
 NMagM=    2.7928460   2.7928460   2.7928460   2.7928460   0.0000000   0.0000000   0.0000000   0.0000000   0.0000000   0.0000000
 AtZNuc=   1.0000000   1.0000000   1.0000000   1.0000000   8.0000000   8.0000000   8.0000000   8.0000000   6.0000000   6.0000000

  Atom        21          22          23          24          25          26          27          28          29          30
 IAtWgt=           1           1           1           1           1           1          16          16          16          32
 AtmWgt=   1.0078250   1.0078250   1.0078250   1.0078250   1.0078250   1.0078250  15.9949146  15.9949146  15.9949146  31.9720718
 NucSpn=           1           1           1           1           1           1           0           0           0           0
 AtZEff=  -0.0000000  -0.0000000  -0.0000000  -0.0000000  -0.0000000  -0.0000000  -0.0000000  -0.0000000  -0.0000000  -0.0000000
 NQMom=    0.0000000   0.0000000   0.0000000   0.0000000   0.0000000   0.0000000   0.0000000   0.0000000   0.0000000   0.0000000
 NMagM=    2.7928460   2.7928460   2.7928460   2.7928460   2.7928460   2.7928460   0.0000000   0.0000000   0.0000000   0.0000000
 AtZNuc=   1.0000000   1.0000000   1.0000000   1.0000000   1.0000000   1.0000000   8.0000000   8.0000000   8.0000000  16.0000000

  Atom        31          32          33          34          35          36          37          38          39          40
 IAtWgt=          32          32          16          16          16          16          16          16          12          12
 AtmWgt=  31.9720718  31.9720718  15.9949146  15.9949146  15.9949146  15.9949146  15.9949146  15.9949146  12.0000000  12.0000000
 NucSpn=           0           0           0           0           0           0           0           0           0           0
 AtZEff=  -0.0000000  -0.0000000  -0.0000000  -0.0000000  -0.0000000  -0.0000000  -0.0000000  -0.0000000  -0.0000000  -0.0000000
 NQMom=    0.0000000   0.0000000   0.0000000   0.0000000   0.0000000   0.0000000   0.0000000   0.0000000   0.0000000   0.0000000
 NMagM=    0.0000000   0.0000000   0.0000000   0.0000000   0.0000000   0.0000000   0.0000000   0.0000000   0.0000000   0.0000000
 AtZNuc=  16.0000000  16.0000000   8.0000000   8.0000000   8.0000000   8.0000000   8.0000000   8.0000000   6.0000000   6.0000000

  Atom        41          42          43          44          45          46          47          48          49          50
 IAtWgt=          12          19          19          19          19          19          19          19          19          19
 AtmWgt=  12.0000000  18.9984032  18.9984032  18.9984032  18.9984032  18.9984032  18.9984032  18.9984032  18.9984032  18.9984032
 NucSpn=           0           1           1           1           1           1           1           1           1           1
 AtZEff=  -0.0000000  -0.0000000  -0.0000000  -0.0000000  -0.0000000  -0.0000000  -0.0000000  -0.0000000  -0.0000000  -0.0000000
 NQMom=    0.0000000   0.0000000   0.0000000   0.0000000   0.0000000   0.0000000   0.0000000   0.0000000   0.0000000   0.0000000
 NMagM=    0.0000000   2.6288670   2.6288670   2.6288670   2.6288670   2.6288670   2.6288670   2.6288670   2.6288670   2.6288670
 AtZNuc=   6.0000000   9.0000000   9.0000000   9.0000000   9.0000000   9.0000000   9.0000000   9.0000000   9.0000000   9.0000000

  Atom        51          52          53          54          55          56          57          58          59          60
 IAtWgt=          12           1          12          12          12          12          12          12           1           1
 AtmWgt=  12.0000000   1.0078250  12.0000000  12.0000000  12.0000000  12.0000000  12.0000000  12.0000000   1.0078250   1.0078250
 NucSpn=           0           1           0           0           0           0           0           0           1           1
 AtZEff=  -0.0000000  -0.0000000  -0.0000000  -0.0000000  -0.0000000  -0.0000000  -0.0000000  -0.0000000  -0.0000000  -0.0000000
 NQMom=    0.0000000   0.0000000   0.0000000   0.0000000   0.0000000   0.0000000   0.0000000   0.0000000   0.0000000   0.0000000
 NMagM=    0.0000000   2.7928460   0.0000000   0.0000000   0.0000000   0.0000000   0.0000000   0.0000000   2.7928460   2.7928460
 AtZNuc=   6.0000000   1.0000000   6.0000000   6.0000000   6.0000000   6.0000000   6.0000000   6.0000000   1.0000000   1.0000000

  Atom        61          62          63          64          65          66          67          68          69
 IAtWgt=           1          14          14          14          14          12           1         175          16
 AtmWgt=   1.0078250  14.0030740  14.0030740  14.0030740  14.0030740  12.0000000   1.0078250 174.9409000  15.9949146
 NucSpn=           1           2           2           2           2           0           1           7           0
 AtZEff=  -0.0000000  -0.0000000  -0.0000000  -0.0000000  -0.0000000  -0.0000000  -0.0000000  -0.0000000  -0.0000000
 NQMom=    0.0000000   2.0440000   2.0440000   2.0440000   2.0440000   0.0000000   0.0000000 349.0000000   0.0000000
 NMagM=    2.7928460   0.4037610   0.4037610   0.4037610   0.4037610   0.0000000   2.7928460   2.2327000   0.0000000
 AtZNuc=   1.0000000   7.0000000   7.0000000   7.0000000   7.0000000   6.0000000   1.0000000  71.0000000   8.0000000
 Leave Link  101 at Mon Apr 28 02:07:57 2025, MaxMem= 82678120448 cpu:              30.6 elap:               1.3
 (Enter /sysapps/ubuntu-applications/gaussian-new/avx/g16/l103.exe)

 GradGradGradGradGradGradGradGradGradGradGradGradGradGradGradGradGradGrad
 Berny optimization.
 Initialization pass.
                           ----------------------------
                           !    Initial Parameters    !
                           ! (Angstroms and Degrees)  !
 --------------------------                            --------------------------
 ! Name  Definition              Value          Derivative Info.                !
 --------------------------------------------------------------------------------
 ! R1    R(1,2)                  1.4004         estimate D2E/DX2                !
 ! R2    R(1,6)                  1.4007         estimate D2E/DX2                !
 ! R3    R(1,51)                 1.5049         estimate D2E/DX2                !
 ! R4    R(2,3)                  1.3953         estimate D2E/DX2                !
 ! R5    R(2,10)                 1.0937         estimate D2E/DX2                !
 ! R6    R(3,4)                  1.3973         estimate D2E/DX2                !
 ! R7    R(3,11)                 1.0921         estimate D2E/DX2                !
 ! R8    R(4,5)                  1.3973         estimate D2E/DX2                !
 ! R9    R(4,12)                 1.0923         estimate D2E/DX2                !
 ! R10   R(5,6)                  1.3958         estimate D2E/DX2                !
 ! R11   R(5,13)                 1.0922         estimate D2E/DX2                !
 ! R12   R(6,14)                 1.0923         estimate D2E/DX2                !
 ! R13   R(7,8)                  1.5332         estimate D2E/DX2                !
 ! R14   R(7,9)                  1.5197         estimate D2E/DX2                !
 ! R15   R(7,66)                 1.599          estimate D2E/DX2                !
 ! R16   R(7,69)                 1.3919         estimate D2E/DX2                !
 ! R17   R(8,16)                 1.2274         estimate D2E/DX2                !
 ! R18   R(8,17)                 1.2942         estimate D2E/DX2                !
 ! R19   R(9,15)                 1.2379         estimate D2E/DX2                !
 ! R20   R(9,18)                 1.2839         estimate D2E/DX2                !
 ! R21   R(15,68)                2.2446         estimate D2E/DX2                !
 ! R22   R(16,68)                2.2745         estimate D2E/DX2                !
 ! R23   R(17,19)                1.4413         estimate D2E/DX2                !
 ! R24   R(18,20)                1.4426         estimate D2E/DX2                !
 ! R25   R(19,21)                1.0937         estimate D2E/DX2                !
 ! R26   R(19,22)                1.0991         estimate D2E/DX2                !
 ! R27   R(19,23)                1.0962         estimate D2E/DX2                !
 ! R28   R(20,24)                1.0932         estimate D2E/DX2                !
 ! R29   R(20,25)                1.0985         estimate D2E/DX2                !
 ! R30   R(20,26)                1.0975         estimate D2E/DX2                !
 ! R31   R(27,31)                1.4995         estimate D2E/DX2                !
 ! R32   R(27,68)                2.3191         estimate D2E/DX2                !
 ! R33   R(28,32)                1.503          estimate D2E/DX2                !
 ! R34   R(28,68)                2.2808         estimate D2E/DX2                !
 ! R35   R(29,30)                1.4937         estimate D2E/DX2                !
 ! R36   R(29,68)                2.4305         estimate D2E/DX2                !
 ! R37   R(30,33)                1.5008         estimate D2E/DX2                !
 ! R38   R(30,34)                1.4384         estimate D2E/DX2                !
 ! R39   R(30,41)                1.8434         estimate D2E/DX2                !
 ! R40   R(30,68)                2.9383         estimate D2E/DX2                !
 ! R41   R(31,35)                1.4977         estimate D2E/DX2                !
 ! R42   R(31,36)                1.4353         estimate D2E/DX2                !
 ! R43   R(31,40)                1.8402         estimate D2E/DX2                !
 ! R44   R(31,68)                2.917          estimate D2E/DX2                !
 ! R45   R(32,37)                1.4916         estimate D2E/DX2                !
 ! R46   R(32,38)                1.44           estimate D2E/DX2                !
 ! R47   R(32,39)                1.8688         estimate D2E/DX2                !
 ! R48   R(32,68)                2.9059         estimate D2E/DX2                !
 ! R49   R(33,68)                2.2926         estimate D2E/DX2                !
 ! R50   R(35,68)                2.3407         estimate D2E/DX2                !
 ! R51   R(37,68)                2.3614         estimate D2E/DX2                !
 ! R52   R(39,42)                1.3165         estimate D2E/DX2                !
 ! R53   R(39,43)                1.3181         estimate D2E/DX2                !
 ! R54   R(39,44)                1.3179         estimate D2E/DX2                !
 ! R55   R(40,45)                1.327          estimate D2E/DX2                !
 ! R56   R(40,46)                1.316          estimate D2E/DX2                !
 ! R57   R(40,47)                1.3156         estimate D2E/DX2                !
 ! R58   R(41,48)                1.3244         estimate D2E/DX2                !
 ! R59   R(41,49)                1.3171         estimate D2E/DX2                !
 ! R60   R(41,50)                1.3172         estimate D2E/DX2                !
 ! R61   R(51,52)                1.1023         estimate D2E/DX2                !
 ! R62   R(51,53)                1.5619         estimate D2E/DX2                !
 ! R63   R(51,69)                1.4155         estimate D2E/DX2                !
 ! R64   R(53,54)                1.4745         estimate D2E/DX2                !
 ! R65   R(53,55)                1.4808         estimate D2E/DX2                !
 ! R66   R(53,64)                1.4597         estimate D2E/DX2                !
 ! R67   R(54,62)                1.1564         estimate D2E/DX2                !
 ! R68   R(55,63)                1.1568         estimate D2E/DX2                !
 ! R69   R(56,58)                1.3437         estimate D2E/DX2                !
 ! R70   R(56,59)                1.0902         estimate D2E/DX2                !
 ! R71   R(56,66)                1.5005         estimate D2E/DX2                !
 ! R72   R(57,58)                1.4591         estimate D2E/DX2                !
 ! R73   R(57,60)                1.0927         estimate D2E/DX2                !
 ! R74   R(57,65)                1.2869         estimate D2E/DX2                !
 ! R75   R(58,61)                1.0916         estimate D2E/DX2                !
 ! R76   R(64,65)                1.3601         estimate D2E/DX2                !
 ! R77   R(64,66)                1.4473         estimate D2E/DX2                !
 ! R78   R(66,67)                1.1035         estimate D2E/DX2                !
 ! A1    A(2,1,6)              120.0069         estimate D2E/DX2                !
 ! A2    A(2,1,51)             119.3517         estimate D2E/DX2                !
 ! A3    A(6,1,51)             120.6239         estimate D2E/DX2                !
 ! A4    A(1,2,3)              120.0111         estimate D2E/DX2                !
 ! A5    A(1,2,10)             119.6514         estimate D2E/DX2                !
 ! A6    A(3,2,10)             120.3371         estimate D2E/DX2                !
 ! A7    A(2,3,4)              119.9789         estimate D2E/DX2                !
 ! A8    A(2,3,11)             119.8112         estimate D2E/DX2                !
 ! A9    A(4,3,11)             120.2078         estimate D2E/DX2                !
 ! A10   A(3,4,5)              120.0376         estimate D2E/DX2                !
 ! A11   A(3,4,12)             119.972          estimate D2E/DX2                !
 ! A12   A(5,4,12)             119.9896         estimate D2E/DX2                !
 ! A13   A(4,5,6)              120.1992         estimate D2E/DX2                !
 ! A14   A(4,5,13)             120.1028         estimate D2E/DX2                !
 ! A15   A(6,5,13)             119.6978         estimate D2E/DX2                !
 ! A16   A(1,6,5)              119.7641         estimate D2E/DX2                !
 ! A17   A(1,6,14)             119.5385         estimate D2E/DX2                !
 ! A18   A(5,6,14)             120.694          estimate D2E/DX2                !
 ! A19   A(8,7,9)              110.9453         estimate D2E/DX2                !
 ! A20   A(8,7,66)             108.6737         estimate D2E/DX2                !
 ! A21   A(8,7,69)             111.9284         estimate D2E/DX2                !
 ! A22   A(9,7,66)             104.9475         estimate D2E/DX2                !
 ! A23   A(9,7,69)             108.5079         estimate D2E/DX2                !
 ! A24   A(66,7,69)            111.6286         estimate D2E/DX2                !
 ! A25   A(7,8,16)             125.3528         estimate D2E/DX2                !
 ! A26   A(7,8,17)             111.8122         estimate D2E/DX2                !
 ! A27   A(16,8,17)            122.7152         estimate D2E/DX2                !
 ! A28   A(7,9,15)             120.5632         estimate D2E/DX2                !
 ! A29   A(7,9,18)             115.6102         estimate D2E/DX2                !
 ! A30   A(15,9,18)            123.6365         estimate D2E/DX2                !
 ! A31   A(9,15,68)            124.548          estimate D2E/DX2                !
 ! A32   A(8,16,68)            136.3264         estimate D2E/DX2                !
 ! A33   A(8,17,19)            118.2222         estimate D2E/DX2                !
 ! A34   A(9,18,20)            117.4012         estimate D2E/DX2                !
 ! A35   A(17,19,21)           105.9675         estimate D2E/DX2                !
 ! A36   A(17,19,22)           109.0226         estimate D2E/DX2                !
 ! A37   A(17,19,23)           109.8624         estimate D2E/DX2                !
 ! A38   A(21,19,22)           110.9879         estimate D2E/DX2                !
 ! A39   A(21,19,23)           110.9042         estimate D2E/DX2                !
 ! A40   A(22,19,23)           110.0034         estimate D2E/DX2                !
 ! A41   A(18,20,24)           105.9109         estimate D2E/DX2                !
 ! A42   A(18,20,25)           109.2174         estimate D2E/DX2                !
 ! A43   A(18,20,26)           109.4444         estimate D2E/DX2                !
 ! A44   A(24,20,25)           110.9973         estimate D2E/DX2                !
 ! A45   A(24,20,26)           110.8686         estimate D2E/DX2                !
 ! A46   A(25,20,26)           110.2904         estimate D2E/DX2                !
 ! A47   A(29,30,33)           105.1713         estimate D2E/DX2                !
 ! A48   A(29,30,34)           118.1885         estimate D2E/DX2                !
 ! A49   A(29,30,41)           104.8398         estimate D2E/DX2                !
 ! A50   A(33,30,34)           117.5638         estimate D2E/DX2                !
 ! A51   A(33,30,41)           104.0233         estimate D2E/DX2                !
 ! A52   A(34,30,41)           105.4644         estimate D2E/DX2                !
 ! A53   A(34,30,68)           132.6125         estimate D2E/DX2                !
 ! A54   A(41,30,68)           121.7729         estimate D2E/DX2                !
 ! A55   A(27,31,35)           104.2009         estimate D2E/DX2                !
 ! A56   A(27,31,36)           118.3748         estimate D2E/DX2                !
 ! A57   A(27,31,40)           102.1651         estimate D2E/DX2                !
 ! A58   A(35,31,36)           118.5171         estimate D2E/DX2                !
 ! A59   A(35,31,40)           102.8781         estimate D2E/DX2                !
 ! A60   A(36,31,40)           108.487          estimate D2E/DX2                !
 ! A61   A(36,31,68)           148.2004         estimate D2E/DX2                !
 ! A62   A(40,31,68)           103.3037         estimate D2E/DX2                !
 ! A63   A(28,32,37)           104.9476         estimate D2E/DX2                !
 ! A64   A(28,32,38)           117.1918         estimate D2E/DX2                !
 ! A65   A(28,32,39)           104.2065         estimate D2E/DX2                !
 ! A66   A(37,32,38)           117.5837         estimate D2E/DX2                !
 ! A67   A(37,32,39)           105.1829         estimate D2E/DX2                !
 ! A68   A(38,32,39)           106.3427         estimate D2E/DX2                !
 ! A69   A(38,32,68)           140.605          estimate D2E/DX2                !
 ! A70   A(39,32,68)           112.9871         estimate D2E/DX2                !
 ! A71   A(32,39,42)           109.1819         estimate D2E/DX2                !
 ! A72   A(32,39,43)           110.0124         estimate D2E/DX2                !
 ! A73   A(32,39,44)           108.438          estimate D2E/DX2                !
 ! A74   A(42,39,43)           109.8666         estimate D2E/DX2                !
 ! A75   A(42,39,44)           109.7754         estimate D2E/DX2                !
 ! A76   A(43,39,44)           109.5445         estimate D2E/DX2                !
 ! A77   A(31,40,45)           107.1259         estimate D2E/DX2                !
 ! A78   A(31,40,46)           109.7963         estimate D2E/DX2                !
 ! A79   A(31,40,47)           110.0946         estimate D2E/DX2                !
 ! A80   A(45,40,46)           109.7899         estimate D2E/DX2                !
 ! A81   A(45,40,47)           109.7829         estimate D2E/DX2                !
 ! A82   A(46,40,47)           110.1996         estimate D2E/DX2                !
 ! A83   A(30,41,48)           109.9075         estimate D2E/DX2                !
 ! A84   A(30,41,49)           109.0212         estimate D2E/DX2                !
 ! A85   A(30,41,50)           108.9204         estimate D2E/DX2                !
 ! A86   A(48,41,49)           109.5448         estimate D2E/DX2                !
 ! A87   A(48,41,50)           109.4585         estimate D2E/DX2                !
 ! A88   A(49,41,50)           109.9742         estimate D2E/DX2                !
 ! A89   A(1,51,52)            110.5434         estimate D2E/DX2                !
 ! A90   A(1,51,53)            113.9694         estimate D2E/DX2                !
 ! A91   A(1,51,69)            108.3718         estimate D2E/DX2                !
 ! A92   A(52,51,53)           104.6945         estimate D2E/DX2                !
 ! A93   A(52,51,69)           111.7288         estimate D2E/DX2                !
 ! A94   A(53,51,69)           107.5229         estimate D2E/DX2                !
 ! A95   A(51,53,54)           110.4363         estimate D2E/DX2                !
 ! A96   A(51,53,55)           109.6125         estimate D2E/DX2                !
 ! A97   A(51,53,64)           107.7626         estimate D2E/DX2                !
 ! A98   A(54,53,55)           109.0477         estimate D2E/DX2                !
 ! A99   A(54,53,64)           110.4199         estimate D2E/DX2                !
 ! A100  A(55,53,64)           109.5447         estimate D2E/DX2                !
 ! A101  A(58,56,59)           122.2944         estimate D2E/DX2                !
 ! A102  A(58,56,66)           119.4304         estimate D2E/DX2                !
 ! A103  A(59,56,66)           118.1915         estimate D2E/DX2                !
 ! A104  A(58,57,60)           121.119          estimate D2E/DX2                !
 ! A105  A(58,57,65)           122.0803         estimate D2E/DX2                !
 ! A106  A(60,57,65)           116.778          estimate D2E/DX2                !
 ! A107  A(56,58,57)           119.5736         estimate D2E/DX2                !
 ! A108  A(56,58,61)           121.0654         estimate D2E/DX2                !
 ! A109  A(57,58,61)           119.352          estimate D2E/DX2                !
 ! A110  A(53,64,65)           113.0188         estimate D2E/DX2                !
 ! A111  A(53,64,66)           114.0923         estimate D2E/DX2                !
 ! A112  A(65,64,66)           123.2382         estimate D2E/DX2                !
 ! A113  A(57,65,64)           117.8656         estimate D2E/DX2                !
 ! A114  A(7,66,56)            113.4377         estimate D2E/DX2                !
 ! A115  A(7,66,64)            110.5529         estimate D2E/DX2                !
 ! A116  A(7,66,67)            104.7342         estimate D2E/DX2                !
 ! A117  A(56,66,64)           109.4307         estimate D2E/DX2                !
 ! A118  A(56,66,67)           110.8041         estimate D2E/DX2                !
 ! A119  A(64,66,67)           107.6619         estimate D2E/DX2                !
 ! A120  A(15,68,16)            74.1733         estimate D2E/DX2                !
 ! A121  A(15,68,27)            92.6584         estimate D2E/DX2                !
 ! A122  A(15,68,28)           141.4699         estimate D2E/DX2                !
 ! A123  A(15,68,29)            71.889          estimate D2E/DX2                !
 ! A124  A(15,68,30)           102.3544         estimate D2E/DX2                !
 ! A125  A(15,68,31)            95.3719         estimate D2E/DX2                !
 ! A126  A(15,68,32)           111.9027         estimate D2E/DX2                !
 ! A127  A(15,68,33)           132.0195         estimate D2E/DX2                !
 ! A128  A(15,68,35)            90.7979         estimate D2E/DX2                !
 ! A129  A(15,68,37)            81.6703         estimate D2E/DX2                !
 ! A130  A(16,68,27)           146.934          estimate D2E/DX2                !
 ! A131  A(16,68,28)            85.513          estimate D2E/DX2                !
 ! A132  A(16,68,29)            74.2492         estimate D2E/DX2                !
 ! A133  A(16,68,30)            83.0668         estimate D2E/DX2                !
 ! A134  A(16,68,32)            79.9161         estimate D2E/DX2                !
 ! A135  A(16,68,33)            87.9197         estimate D2E/DX2                !
 ! A136  A(16,68,35)           146.6472         estimate D2E/DX2                !
 ! A137  A(16,68,37)            75.8874         estimate D2E/DX2                !
 ! A138  A(27,68,28)            86.8616         estimate D2E/DX2                !
 ! A139  A(27,68,29)           131.0699         estimate D2E/DX2                !
 ! A140  A(27,68,30)           129.8246         estimate D2E/DX2                !
 ! A141  A(27,68,32)            77.1852         estimate D2E/DX2                !
 ! A142  A(27,68,33)           121.7356         estimate D2E/DX2                !
 ! A143  A(27,68,35)            60.9998         estimate D2E/DX2                !
 ! A144  A(27,68,37)            72.2068         estimate D2E/DX2                !
 ! A145  A(28,68,29)           133.689          estimate D2E/DX2                !
 ! A146  A(28,68,30)           107.3436         estimate D2E/DX2                !
 ! A147  A(28,68,31)           103.0999         estimate D2E/DX2                !
 ! A148  A(28,68,33)            78.0126         estimate D2E/DX2                !
 ! A149  A(28,68,35)           121.6482         estimate D2E/DX2                !
 ! A150  A(28,68,37)            61.5123         estimate D2E/DX2                !
 ! A151  A(29,68,31)           103.0292         estimate D2E/DX2                !
 ! A152  A(29,68,32)           151.745          estimate D2E/DX2                !
 ! A153  A(29,68,33)            60.3901         estimate D2E/DX2                !
 ! A154  A(29,68,35)            72.7919         estimate D2E/DX2                !
 ! A155  A(29,68,37)           144.3832         estimate D2E/DX2                !
 ! A156  A(30,68,31)            99.7028         estimate D2E/DX2                !
 ! A157  A(30,68,32)           135.4385         estimate D2E/DX2                !
 ! A158  A(30,68,35)            71.0755         estimate D2E/DX2                !
 ! A159  A(30,68,37)           156.6627         estimate D2E/DX2                !
 ! A160  A(31,68,32)           104.3913         estimate D2E/DX2                !
 ! A161  A(31,68,33)            99.5683         estimate D2E/DX2                !
 ! A162  A(31,68,37)           102.8093         estimate D2E/DX2                !
 ! A163  A(32,68,33)           107.9794         estimate D2E/DX2                !
 ! A164  A(32,68,35)           133.3954         estimate D2E/DX2                !
 ! A165  A(33,68,35)            80.3086         estimate D2E/DX2                !
 ! A166  A(33,68,37)           137.0649         estimate D2E/DX2                !
 ! A167  A(35,68,37)           132.1831         estimate D2E/DX2                !
 ! A168  A(7,69,51)            123.273          estimate D2E/DX2                !
 ! A169  L(53,54,62,2,-1)      177.1411         estimate D2E/DX2                !
 ! A170  L(53,55,63,3,-1)      179.1647         estimate D2E/DX2                !
 ! A171  L(16,68,31,15,-1)     169.5452         estimate D2E/DX2                !
 ! A172  L(53,54,62,2,-2)      181.6624         estimate D2E/DX2                !
 ! A173  L(53,55,63,3,-2)      182.0391         estimate D2E/DX2                !
 ! A174  L(16,68,31,15,-2)     179.804          estimate D2E/DX2                !
 ! D1    D(6,1,2,3)             -0.5268         estimate D2E/DX2                !
 ! D2    D(6,1,2,10)           179.2614         estimate D2E/DX2                !
 ! D3    D(51,1,2,3)           177.9623         estimate D2E/DX2                !
 ! D4    D(51,1,2,10)           -2.2495         estimate D2E/DX2                !
 ! D5    D(2,1,6,5)              0.244          estimate D2E/DX2                !
 ! D6    D(2,1,6,14)          -179.0894         estimate D2E/DX2                !
 ! D7    D(51,1,6,5)          -178.2256         estimate D2E/DX2                !
 ! D8    D(51,1,6,14)            2.441          estimate D2E/DX2                !
 ! D9    D(2,1,51,52)           28.4169         estimate D2E/DX2                !
 ! D10   D(2,1,51,53)          -89.1683         estimate D2E/DX2                !
 ! D11   D(2,1,51,69)          151.1718         estimate D2E/DX2                !
 ! D12   D(6,1,51,52)         -153.1035         estimate D2E/DX2                !
 ! D13   D(6,1,51,53)           89.3112         estimate D2E/DX2                !
 ! D14   D(6,1,51,69)          -30.3486         estimate D2E/DX2                !
 ! D15   D(1,2,3,4)              0.4271         estimate D2E/DX2                !
 ! D16   D(1,2,3,11)           179.8992         estimate D2E/DX2                !
 ! D17   D(10,2,3,4)          -179.3597         estimate D2E/DX2                !
 ! D18   D(10,2,3,11)            0.1124         estimate D2E/DX2                !
 ! D19   D(2,3,4,5)             -0.0455         estimate D2E/DX2                !
 ! D20   D(2,3,4,12)           179.6289         estimate D2E/DX2                !
 ! D21   D(11,3,4,5)          -179.5155         estimate D2E/DX2                !
 ! D22   D(11,3,4,12)            0.1589         estimate D2E/DX2                !
 ! D23   D(3,4,5,6)             -0.2378         estimate D2E/DX2                !
 ! D24   D(3,4,5,13)           179.6245         estimate D2E/DX2                !
 ! D25   D(12,4,5,6)          -179.9122         estimate D2E/DX2                !
 ! D26   D(12,4,5,13)           -0.0499         estimate D2E/DX2                !
 ! D27   D(4,5,6,1)              0.1378         estimate D2E/DX2                !
 ! D28   D(4,5,6,14)           179.4633         estimate D2E/DX2                !
 ! D29   D(13,5,6,1)          -179.7251         estimate D2E/DX2                !
 ! D30   D(13,5,6,14)           -0.3995         estimate D2E/DX2                !
 ! D31   D(9,7,8,16)            17.5684         estimate D2E/DX2                !
 ! D32   D(9,7,8,17)          -166.3371         estimate D2E/DX2                !
 ! D33   D(66,7,8,16)          -97.3227         estimate D2E/DX2                !
 ! D34   D(66,7,8,17)           78.7718         estimate D2E/DX2                !
 ! D35   D(69,7,8,16)          138.934          estimate D2E/DX2                !
 ! D36   D(69,7,8,17)          -44.9715         estimate D2E/DX2                !
 ! D37   D(8,7,9,15)           -47.5817         estimate D2E/DX2                !
 ! D38   D(8,7,9,18)           137.249          estimate D2E/DX2                !
 ! D39   D(66,7,9,15)           69.6137         estimate D2E/DX2                !
 ! D40   D(66,7,9,18)         -105.5557         estimate D2E/DX2                !
 ! D41   D(69,7,9,15)         -170.9358         estimate D2E/DX2                !
 ! D42   D(69,7,9,18)           13.8949         estimate D2E/DX2                !
 ! D43   D(8,7,66,56)           37.5227         estimate D2E/DX2                !
 ! D44   D(8,7,66,64)          -85.8287         estimate D2E/DX2                !
 ! D45   D(8,7,66,67)          158.4723         estimate D2E/DX2                !
 ! D46   D(9,7,66,56)          -81.2139         estimate D2E/DX2                !
 ! D47   D(9,7,66,64)          155.4348         estimate D2E/DX2                !
 ! D48   D(9,7,66,67)           39.7357         estimate D2E/DX2                !
 ! D49   D(69,7,66,56)         161.4447         estimate D2E/DX2                !
 ! D50   D(69,7,66,64)          38.0933         estimate D2E/DX2                !
 ! D51   D(69,7,66,67)         -77.6057         estimate D2E/DX2                !
 ! D52   D(8,7,69,51)           80.7307         estimate D2E/DX2                !
 ! D53   D(9,7,69,51)         -156.5083         estimate D2E/DX2                !
 ! D54   D(66,7,69,51)         -41.3365         estimate D2E/DX2                !
 ! D55   D(7,8,16,68)          -12.7808         estimate D2E/DX2                !
 ! D56   D(17,8,16,68)         171.5294         estimate D2E/DX2                !
 ! D57   D(7,8,17,19)         -169.7971         estimate D2E/DX2                !
 ! D58   D(16,8,17,19)           6.4172         estimate D2E/DX2                !
 ! D59   D(7,9,15,68)           70.9715         estimate D2E/DX2                !
 ! D60   D(18,9,15,68)        -114.2617         estimate D2E/DX2                !
 ! D61   D(7,9,18,20)          179.3033         estimate D2E/DX2                !
 ! D62   D(15,9,18,20)           4.2998         estimate D2E/DX2                !
 ! D63   D(9,15,68,16)         -44.7863         estimate D2E/DX2                !
 ! D64   D(9,15,68,27)         166.0271         estimate D2E/DX2                !
 ! D65   D(9,15,68,28)        -105.6734         estimate D2E/DX2                !
 ! D66   D(9,15,68,29)          33.4343         estimate D2E/DX2                !
 ! D67   D(9,15,68,30)          34.2298         estimate D2E/DX2                !
 ! D68   D(9,15,68,31)         135.4097         estimate D2E/DX2                !
 ! D69   D(9,15,68,32)        -116.7199         estimate D2E/DX2                !
 ! D70   D(9,15,68,33)          27.3831         estimate D2E/DX2                !
 ! D71   D(9,15,68,35)         105.0222         estimate D2E/DX2                !
 ! D72   D(9,15,68,37)        -122.3924         estimate D2E/DX2                !
 ! D73   D(8,16,68,15)          17.9612         estimate D2E/DX2                !
 ! D74   D(8,16,68,27)          87.6539         estimate D2E/DX2                !
 ! D75   D(8,16,68,28)         164.8751         estimate D2E/DX2                !
 ! D76   D(8,16,68,29)         -57.2201         estimate D2E/DX2                !
 ! D77   D(8,16,68,30)         -87.0197         estimate D2E/DX2                !
 ! D78   D(8,16,68,32)         134.3351         estimate D2E/DX2                !
 ! D79   D(8,16,68,33)        -116.9908         estimate D2E/DX2                !
 ! D80   D(8,16,68,35)         -48.188          estimate D2E/DX2                !
 ! D81   D(8,16,68,37)         103.1431         estimate D2E/DX2                !
 ! D82   D(8,17,19,21)         175.2062         estimate D2E/DX2                !
 ! D83   D(8,17,19,22)          55.6871         estimate D2E/DX2                !
 ! D84   D(8,17,19,23)         -64.9283         estimate D2E/DX2                !
 ! D85   D(9,18,20,24)         175.7037         estimate D2E/DX2                !
 ! D86   D(9,18,20,25)          56.103          estimate D2E/DX2                !
 ! D87   D(9,18,20,26)         -64.7283         estimate D2E/DX2                !
 ! D88   D(29,30,41,48)        -43.6721         estimate D2E/DX2                !
 ! D89   D(29,30,41,49)       -163.7516         estimate D2E/DX2                !
 ! D90   D(29,30,41,50)         76.2396         estimate D2E/DX2                !
 ! D91   D(33,30,41,48)         66.5236         estimate D2E/DX2                !
 ! D92   D(33,30,41,49)        -53.5559         estimate D2E/DX2                !
 ! D93   D(33,30,41,50)       -173.5646         estimate D2E/DX2                !
 ! D94   D(34,30,41,48)       -169.146          estimate D2E/DX2                !
 ! D95   D(34,30,41,49)         70.7745         estimate D2E/DX2                !
 ! D96   D(34,30,41,50)        -49.2342         estimate D2E/DX2                !
 ! D97   D(68,30,41,48)         14.7837         estimate D2E/DX2                !
 ! D98   D(68,30,41,49)       -105.2958         estimate D2E/DX2                !
 ! D99   D(68,30,41,50)        134.6954         estimate D2E/DX2                !
 ! D100  D(34,30,68,15)         97.0306         estimate D2E/DX2                !
 ! D101  D(34,30,68,16)        169.0988         estimate D2E/DX2                !
 ! D102  D(34,30,68,27)         -7.1199         estimate D2E/DX2                !
 ! D103  D(34,30,68,28)       -107.8245         estimate D2E/DX2                !
 ! D104  D(34,30,68,31)         -0.7095         estimate D2E/DX2                !
 ! D105  D(34,30,68,32)       -122.9161         estimate D2E/DX2                !
 ! D106  D(34,30,68,35)         10.4718         estimate D2E/DX2                !
 ! D107  D(34,30,68,37)       -165.309          estimate D2E/DX2                !
 ! D108  D(41,30,68,15)        -88.1185         estimate D2E/DX2                !
 ! D109  D(41,30,68,16)        -16.0503         estimate D2E/DX2                !
 ! D110  D(41,30,68,27)        167.731          estimate D2E/DX2                !
 ! D111  D(41,30,68,28)         67.0264         estimate D2E/DX2                !
 ! D112  D(41,30,68,31)        174.1413         estimate D2E/DX2                !
 ! D113  D(41,30,68,32)         51.9348         estimate D2E/DX2                !
 ! D114  D(41,30,68,35)       -174.6773         estimate D2E/DX2                !
 ! D115  D(41,30,68,37)          9.5419         estimate D2E/DX2                !
 ! D116  D(27,31,40,45)         54.8218         estimate D2E/DX2                !
 ! D117  D(27,31,40,46)        -64.351          estimate D2E/DX2                !
 ! D118  D(27,31,40,47)        174.1522         estimate D2E/DX2                !
 ! D119  D(35,31,40,45)        -53.0398         estimate D2E/DX2                !
 ! D120  D(35,31,40,46)       -172.2126         estimate D2E/DX2                !
 ! D121  D(35,31,40,47)         66.2906         estimate D2E/DX2                !
 ! D122  D(36,31,40,45)       -179.3977         estimate D2E/DX2                !
 ! D123  D(36,31,40,46)         61.4294         estimate D2E/DX2                !
 ! D124  D(36,31,40,47)        -60.0674         estimate D2E/DX2                !
 ! D125  D(68,31,40,45)          1.3626         estimate D2E/DX2                !
 ! D126  D(68,31,40,46)       -117.8102         estimate D2E/DX2                !
 ! D127  D(68,31,40,47)        120.693          estimate D2E/DX2                !
 ! D128  D(36,31,68,15)          2.6869         estimate D2E/DX2                !
 ! D129  D(36,31,68,28)       -143.2691         estimate D2E/DX2                !
 ! D130  D(36,31,68,29)         75.3061         estimate D2E/DX2                !
 ! D131  D(36,31,68,30)        106.2254         estimate D2E/DX2                !
 ! D132  D(36,31,68,32)       -111.5772         estimate D2E/DX2                !
 ! D133  D(36,31,68,33)        136.9276         estimate D2E/DX2                !
 ! D134  D(36,31,68,37)        -79.9681         estimate D2E/DX2                !
 ! D135  D(40,31,68,15)       -178.6817         estimate D2E/DX2                !
 ! D136  D(40,31,68,28)         35.3623         estimate D2E/DX2                !
 ! D137  D(40,31,68,29)       -106.0625         estimate D2E/DX2                !
 ! D138  D(40,31,68,30)        -75.1432         estimate D2E/DX2                !
 ! D139  D(40,31,68,32)         67.0542         estimate D2E/DX2                !
 ! D140  D(40,31,68,33)        -44.441          estimate D2E/DX2                !
 ! D141  D(40,31,68,37)         98.6633         estimate D2E/DX2                !
 ! D142  D(28,32,39,42)        129.6593         estimate D2E/DX2                !
 ! D143  D(28,32,39,43)          9.0198         estimate D2E/DX2                !
 ! D144  D(28,32,39,44)       -110.764          estimate D2E/DX2                !
 ! D145  D(37,32,39,42)         19.5144         estimate D2E/DX2                !
 ! D146  D(37,32,39,43)       -101.1252         estimate D2E/DX2                !
 ! D147  D(37,32,39,44)        139.091          estimate D2E/DX2                !
 ! D148  D(38,32,39,42)       -105.9058         estimate D2E/DX2                !
 ! D149  D(38,32,39,43)        133.4547         estimate D2E/DX2                !
 ! D150  D(38,32,39,44)         13.6709         estimate D2E/DX2                !
 ! D151  D(68,32,39,42)         76.4097         estimate D2E/DX2                !
 ! D152  D(68,32,39,43)        -44.2298         estimate D2E/DX2                !
 ! D153  D(68,32,39,44)       -164.0136         estimate D2E/DX2                !
 ! D154  D(38,32,68,15)         79.9745         estimate D2E/DX2                !
 ! D155  D(38,32,68,16)         11.6938         estimate D2E/DX2                !
 ! D156  D(38,32,68,27)        167.6714         estimate D2E/DX2                !
 ! D157  D(38,32,68,29)        -12.3385         estimate D2E/DX2                !
 ! D158  D(38,32,68,30)        -57.4935         estimate D2E/DX2                !
 ! D159  D(38,32,68,31)       -178.0591         estimate D2E/DX2                !
 ! D160  D(38,32,68,33)        -72.7701         estimate D2E/DX2                !
 ! D161  D(38,32,68,35)       -166.3974         estimate D2E/DX2                !
 ! D162  D(39,32,68,15)       -103.5277         estimate D2E/DX2                !
 ! D163  D(39,32,68,16)       -171.8084         estimate D2E/DX2                !
 ! D164  D(39,32,68,27)        -15.8308         estimate D2E/DX2                !
 ! D165  D(39,32,68,29)        164.1593         estimate D2E/DX2                !
 ! D166  D(39,32,68,30)        119.0043         estimate D2E/DX2                !
 ! D167  D(39,32,68,31)         -1.5613         estimate D2E/DX2                !
 ! D168  D(39,32,68,33)        103.7277         estimate D2E/DX2                !
 ! D169  D(39,32,68,35)         10.1003         estimate D2E/DX2                !
 ! D170  D(1,51,53,54)          62.4646         estimate D2E/DX2                !
 ! D171  D(1,51,53,55)         -57.701          estimate D2E/DX2                !
 ! D172  D(1,51,53,64)        -176.8492         estimate D2E/DX2                !
 ! D173  D(52,51,53,54)        -58.4401         estimate D2E/DX2                !
 ! D174  D(52,51,53,55)       -178.6056         estimate D2E/DX2                !
 ! D175  D(52,51,53,64)         62.2461         estimate D2E/DX2                !
 ! D176  D(69,51,53,54)       -177.3973         estimate D2E/DX2                !
 ! D177  D(69,51,53,55)         62.4371         estimate D2E/DX2                !
 ! D178  D(69,51,53,64)        -56.7111         estimate D2E/DX2                !
 ! D179  D(1,51,69,7)          174.3926         estimate D2E/DX2                !
 ! D180  D(52,51,69,7)         -63.5748         estimate D2E/DX2                !
 ! D181  D(53,51,69,7)          50.7675         estimate D2E/DX2                !
 ! D182  D(51,53,64,65)        -84.1434         estimate D2E/DX2                !
 ! D183  D(51,53,64,66)         63.2456         estimate D2E/DX2                !
 ! D184  D(54,53,64,65)         36.5531         estimate D2E/DX2                !
 ! D185  D(54,53,64,66)       -176.0579         estimate D2E/DX2                !
 ! D186  D(55,53,64,65)        156.6651         estimate D2E/DX2                !
 ! D187  D(55,53,64,66)        -55.9459         estimate D2E/DX2                !
 ! D188  D(59,56,58,57)        179.094          estimate D2E/DX2                !
 ! D189  D(59,56,58,61)          0.1947         estimate D2E/DX2                !
 ! D190  D(66,56,58,57)         -4.2958         estimate D2E/DX2                !
 ! D191  D(66,56,58,61)        176.8049         estimate D2E/DX2                !
 ! D192  D(58,56,66,7)        -100.7025         estimate D2E/DX2                !
 ! D193  D(58,56,66,64)         23.262          estimate D2E/DX2                !
 ! D194  D(58,56,66,67)        141.8294         estimate D2E/DX2                !
 ! D195  D(59,56,66,7)          76.0466         estimate D2E/DX2                !
 ! D196  D(59,56,66,64)       -159.9889         estimate D2E/DX2                !
 ! D197  D(59,56,66,67)        -41.4216         estimate D2E/DX2                !
 ! D198  D(60,57,58,56)        173.3304         estimate D2E/DX2                !
 ! D199  D(60,57,58,61)         -7.7512         estimate D2E/DX2                !
 ! D200  D(65,57,58,56)         -8.4602         estimate D2E/DX2                !
 ! D201  D(65,57,58,61)        170.4581         estimate D2E/DX2                !
 ! D202  D(58,57,65,64)         -1.3715         estimate D2E/DX2                !
 ! D203  D(60,57,65,64)        176.9114         estimate D2E/DX2                !
 ! D204  D(53,64,65,57)        169.1844         estimate D2E/DX2                !
 ! D205  D(66,64,65,57)         25.2151         estimate D2E/DX2                !
 ! D206  D(53,64,66,7)         -52.9998         estimate D2E/DX2                !
 ! D207  D(53,64,66,56)       -178.641          estimate D2E/DX2                !
 ! D208  D(53,64,66,67)         60.8565         estimate D2E/DX2                !
 ! D209  D(65,64,66,7)          90.6269         estimate D2E/DX2                !
 ! D210  D(65,64,66,56)        -35.0143         estimate D2E/DX2                !
 ! D211  D(65,64,66,67)       -155.5168         estimate D2E/DX2                !
 --------------------------------------------------------------------------------
 Trust Radius=3.00D-01 FncErr=1.00D-07 GrdErr=1.00D-06 EigMax=2.50D+02 EigMin=1.00D-04
 Number of steps in this run=    414 maximum allowed number of steps=    414.
 GradGradGradGradGradGradGradGradGradGradGradGradGradGradGradGradGradGrad

 Leave Link  103 at Mon Apr 28 02:07:57 2025, MaxMem= 82678120448 cpu:               2.8 elap:               0.1
 (Enter /sysapps/ubuntu-applications/gaussian-new/avx/g16/l202.exe)
 Stoichiometry    C22H16F9LuN4O14S3
 Framework group  C1[X(C22H16F9LuN4O14S3)]
 Deg. of freedom   201
 Full point group                 C1      NOp   1
 Largest Abelian subgroup         C1      NOp   1
 Largest concise Abelian subgroup C1      NOp   1
                         Standard orientation:                         
 ---------------------------------------------------------------------
 Center     Atomic      Atomic             Coordinates (Angstroms)
 Number     Number       Type             X           Y           Z
 ---------------------------------------------------------------------
      1          6           0       -5.590922   -0.745321   -0.114947
      2          6           0       -6.706277   -0.728283    0.731701
      3          6           0       -7.728344   -1.662256    0.558414
      4          6           0       -7.634431   -2.620203   -0.454506
      5          6           0       -6.518072   -2.642762   -1.294541
      6          6           0       -5.495827   -1.706925   -1.128996
      7          6           0       -2.107958    0.479422   -0.449350
      8          6           0       -1.430228    0.626679    0.918033
      9          6           0       -1.182418   -0.201504   -1.443879
     10          1           0       -6.768836    0.017524    1.529288
     11          1           0       -8.595873   -1.647041    1.221567
     12          1           0       -8.431782   -3.355126   -0.586199
     13          1           0       -6.440696   -3.394887   -2.082687
     14          1           0       -4.615462   -1.722584   -1.775479
     15          8           0       -0.007349    0.168494   -1.565502
     16          8           0       -0.223505    0.541422    1.125412
     17          8           0       -2.278960    0.937133    1.844475
     18          8           0       -1.728400   -1.092332   -2.190077
     19          6           0       -1.767610    1.328327    3.134024
     20          6           0       -0.888066   -1.752492   -3.159182
     21          1           0       -2.638192    1.626450    3.725078
     22          1           0       -1.073253    2.170257    3.003682
     23          1           0       -1.248676    0.483118    3.600941
     24          1           0       -1.514467   -2.515649   -3.628618
     25          1           0       -0.031570   -2.208444   -2.644148
     26          1           0       -0.541189   -1.021218   -3.900402
     27          8           0        3.287366    0.375394   -1.527671
     28          8           0        2.814875    0.931277    1.549466
     29          8           0        0.078381   -2.065368    0.033292
     30         16           0        0.853495   -2.780070    1.091360
     31         16           0        3.626662   -1.022708   -1.950491
     32         16           0        2.621690    2.330280    1.035246
     33          8           0        1.878914   -1.790804    1.562876
     34          8           0        1.297837   -4.120811    0.819409
     35          8           0        2.541124   -1.861845   -1.349963
     36          8           0        3.991700   -1.251672   -3.319615
     37          8           0        1.727111    2.184651   -0.149397
     38          8           0        2.289978    3.346192    2.000418
     39          6           0        4.290282    2.795742    0.334240
     40          6           0        5.078409   -1.407841   -0.887296
     41          6           0       -0.311738   -2.927115    2.512157
     42          9           0        4.131272    3.266165   -0.885044
     43          9           0        5.078869    1.739878    0.307687
     44          9           0        4.821786    3.723713    1.104391
     45          9           0        4.708052   -1.200239    0.369954
     46          9           0        6.079599   -0.610827   -1.194252
     47          9           0        5.433510   -2.664788   -1.045134
     48          9           0       -0.953382   -1.782169    2.689519
     49          9           0        0.371440   -3.222282    3.598843
     50          9           0       -1.181434   -3.882099    2.254186
     51          6           0       -4.519323    0.297386    0.055665
     52          1           0       -4.474581    0.638310    1.102962
     53          6           0       -4.761706    1.598082   -0.774404
     54          6           0       -6.003732    2.262765   -0.338936
     55          6           0       -4.874138    1.257166   -2.211060
     56          6           0       -1.254729    2.906614   -0.762131
     57          6           0       -2.672527    3.875765    0.946733
     58          6           0       -1.403353    3.799398    0.231052
     59          1           0       -0.331342    2.821445   -1.335438
     60          1           0       -2.787405    4.513970    1.826190
     61          1           0       -0.595276    4.482003    0.500432
     62          7           0       -7.009577    2.726100   -0.005916
     63          7           0       -4.943615    0.953971   -3.325258
     64          7           0       -3.614712    2.477348   -0.569474
     65          7           0       -3.715301    3.228201    0.560058
     66          6           0       -2.362452    1.937566   -1.054312
     67          1           0       -2.465733    1.776437   -2.141044
     68         71           0        1.598824   -0.170439   -0.034631
     69          8           0       -3.287288   -0.255504   -0.368534
 ---------------------------------------------------------------------
 Rotational constants (GHZ):           0.0815928           0.0351193           0.0309124
 Leave Link  202 at Mon Apr 28 02:07:57 2025, MaxMem= 82678120448 cpu:               0.5 elap:               0.0
 (Enter /sysapps/ubuntu-applications/gaussian-new/avx/g16/l301.exe)
 General basis read from cards:  (5D, 7F)
 Centers:      10     11     12     13     14     21     22     23     24     25
 Centers:      26     52     59     60     61     67
 S 3 1.00
     Exponent=  1.3010701000D+01 Coefficients=  1.9682158000D-02
     Exponent=  1.9622572000D+00 Coefficients=  1.3796524000D-01
     Exponent=  4.4453796000D-01 Coefficients=  4.7831935000D-01
 S 1 1.00
     Exponent=  1.2194962000D-01 Coefficients=  1.0000000000D+00
 P 1 1.00
     Exponent=  8.0000000000D-01 Coefficients=  1.0000000000D+00
 ****
 Centers:       1      2      3      4      5      6      7      8      9     19
 Centers:      20     39     40     41     51     53     54     55     56     57
 Centers:      58     66
 S 5 1.00
     Exponent=  1.2384016938D+03 Coefficients=  5.4568832082D-03
     Exponent=  1.8629004992D+02 Coefficients=  4.0638409211D-02
     Exponent=  4.2251176346D+01 Coefficients=  1.8025593888D-01
     Exponent=  1.1676557932D+01 Coefficients=  4.6315121755D-01
     Exponent=  3.5930506482D+00 Coefficients=  4.4087173314D-01
 S 1 1.00
     Exponent=  4.0245147363D-01 Coefficients=  1.0000000000D+00
 S 1 1.00
     Exponent=  1.3090182668D-01 Coefficients=  1.0000000000D+00
 P 3 1.00
     Exponent=  9.4680970621D+00 Coefficients=  3.8387871728D-02
     Exponent=  2.0103545142D+00 Coefficients=  2.1117025112D-01
     Exponent=  5.4771004707D-01 Coefficients=  5.1328172114D-01
 P 1 1.00
     Exponent=  1.5268613795D-01 Coefficients=  1.0000000000D+00
 D 1 1.00
     Exponent=  8.0000000000D-01 Coefficients=  1.0000000000D+00
 ****
 Centers:      62     63     64     65
 S 5 1.00
     Exponent=  1.7128415853D+03 Coefficients= -5.3934125305D-03
     Exponent=  2.5764812677D+02 Coefficients= -4.0221581118D-02
     Exponent=  5.8458245853D+01 Coefficients= -1.7931144990D-01
     Exponent=  1.6198367905D+01 Coefficients= -4.6376317823D-01
     Exponent=  5.0052600809D+00 Coefficients= -4.4171422662D-01
 S 1 1.00
     Exponent=  5.8731856571D-01 Coefficients=  1.0000000000D+00
 S 1 1.00
     Exponent=  1.8764592253D-01 Coefficients=  1.0000000000D+00
 P 3 1.00
     Exponent=  1.3571470233D+01 Coefficients= -4.0072398852D-02
     Exponent=  2.9257372874D+00 Coefficients= -2.1807045028D-01
     Exponent=  7.9927750754D-01 Coefficients= -5.1294466049D-01
 P 1 1.00
     Exponent=  2.1954348034D-01 Coefficients=  1.0000000000D+00
 D 1 1.00
     Exponent=  1.0000000000D+00 Coefficients=  1.0000000000D+00
 ****
 Centers:      15     16     17     18     27     28     29     33     34     35
 Centers:      36     37     38     69
 S 5 1.00
     Exponent=  2.2661767785D+03 Coefficients= -5.3431809926D-03
     Exponent=  3.4087010191D+02 Coefficients= -3.9890039230D-02
     Exponent=  7.7363135167D+01 Coefficients= -1.7853911985D-01
     Exponent=  2.1479644940D+01 Coefficients= -4.6427684959D-01
     Exponent=  6.6589433124D+00 Coefficients= -4.4309745172D-01
 S 1 1.00
     Exponent=  8.0975975668D-01 Coefficients=  1.0000000000D+00
 S 1 1.00
     Exponent=  2.5530772234D-01 Coefficients=  1.0000000000D+00
 P 3 1.00
     Exponent=  1.7721504317D+01 Coefficients=  4.3394573193D-02
     Exponent=  3.8635505440D+00 Coefficients=  2.3094120765D-01
     Exponent=  1.0480920883D+00 Coefficients=  5.1375311064D-01
 P 1 1.00
     Exponent=  2.7641544411D-01 Coefficients=  1.0000000000D+00
 D 1 1.00
     Exponent=  1.2000000000D+00 Coefficients=  1.0000000000D+00
 ****
 Centers:      42     43     44     45     46     47     48     49     50
 S 5 1.00
     Exponent=  2.8948325990D+03 Coefficients= -5.3408255515D-03
     Exponent=  4.3541939120D+02 Coefficients= -3.9904258866D-02
     Exponent=  9.8843328866D+01 Coefficients= -1.7912768038D-01
     Exponent=  2.7485198001D+01 Coefficients= -4.6758090825D-01
     Exponent=  8.5405498171D+00 Coefficients= -4.4653131020D-01
 S 1 1.00
     Exponent=  1.0654578038D+00 Coefficients=  1.0000000000D+00
 S 1 1.00
     Exponent=  3.3247346748D-01 Coefficients=  1.0000000000D+00
 P 3 1.00
     Exponent=  2.2696633924D+01 Coefficients= -4.5212874436D-02
     Exponent=  4.9872339257D+00 Coefficients= -2.3754317067D-01
     Exponent=  1.3491613954D+00 Coefficients= -5.1287353587D-01
 P 1 1.00
     Exponent=  3.4829881977D-01 Coefficients=  1.0000000000D+00
 D 1 1.00
     Exponent=  1.4000000000D+00 Coefficients=  1.0000000000D+00
 ****
 Centers:      30     31     32
 S 5 1.00
     Exponent=  9.1849303010D+03 Coefficients= -2.2294387756D-03
     Exponent=  1.3815105503D+03 Coefficients= -1.6683029937D-02
     Exponent=  3.1387147580D+02 Coefficients= -7.5262436116D-02
     Exponent=  8.8053870623D+01 Coefficients= -1.9376827038D-01
     Exponent=  2.7039914905D+01 Coefficients= -1.7718020803D-01
 S 3 1.00
     Exponent=  4.5648731303D+01 Coefficients= -1.0736062573D-01
     Exponent=  4.9664522326D+00 Coefficients=  6.5066293018D-01
     Exponent=  2.0116242047D+00 Coefficients=  5.9712155354D-01
 S 1 1.00
     Exponent=  3.5661077013D-01 Coefficients=  1.0000000000D+00
 S 1 1.00
     Exponent=  1.3507221477D-01 Coefficients=  1.0000000000D+00
 P 5 1.00
     Exponent=  2.6198233439D+02 Coefficients= -9.2729929822D-03
     Exponent=  6.1306894736D+01 Coefficients= -6.6547669241D-02
     Exponent=  1.9103729887D+01 Coefficients= -2.4828595903D-01
     Exponent=  6.6567720378D+00 Coefficients= -4.8703847402D-01
     Exponent=  2.3959635161D+00 Coefficients= -3.9337850312D-01
 P 1 1.00
     Exponent=  6.1776161679D-01 Coefficients=  1.0000000000D+00
 P 1 1.00
     Exponent=  1.6993376871D-01 Coefficients=  1.0000000000D+00
 D 1 1.00
     Exponent=  5.5000000000D-01 Coefficients=  1.0000000000D+00
 ****
 Centers:      68
 S 5 1.00
     Exponent=  9.5169767000D+04 Coefficients=  2.2000000000D-05
     Exponent=  1.5488403000D+04 Coefficients=  1.4500000000D-04
     Exponent=  3.7762335000D+03 Coefficients=  6.5100000000D-04
     Exponent=  1.0790501000D+03 Coefficients=  2.0380000000D-03
     Exponent=  2.6895380000D+02 Coefficients=  5.1270000000D-03
 S 1 1.00
     Exponent=  6.3467900000D+01 Coefficients=  1.0000000000D+00
 S 1 1.00
     Exponent=  4.5133200000D+01 Coefficients=  1.0000000000D+00
 S 1 1.00
     Exponent=  2.1456800000D+01 Coefficients=  1.0000000000D+00
 S 1 1.00
     Exponent=  5.3483000000D+00 Coefficients=  1.0000000000D+00
 S 1 1.00
     Exponent=  2.6778000000D+00 Coefficients=  1.0000000000D+00
 S 1 1.00
     Exponent=  1.0287000000D+00 Coefficients=  1.0000000000D+00
 S 1 1.00
     Exponent=  4.4080000000D-01 Coefficients=  1.0000000000D+00
 S 1 1.00
     Exponent=  7.9100000000D-02 Coefficients=  1.0000000000D+00
 S 1 1.00
     Exponent=  3.1300000000D-02 Coefficients=  1.0000000000D+00
 P 3 1.00
     Exponent=  1.2333733920D+01 Coefficients= -1.5313031066D-01
     Exponent=  1.1080331415D+01 Coefficients= -2.0300664852D-01
     Exponent=  2.0341747228D+00 Coefficients= -1.9458361263D-01
 P 6 1.00
     Exponent=  1.5005317313D+03 Coefficients= -1.0192569555D-03
     Exponent=  3.8239748937D+02 Coefficients= -5.9476212135D-03
     Exponent=  1.3299969628D+02 Coefficients= -1.6265160929D-02
     Exponent=  4.6110032419D+01 Coefficients= -3.5623845839D-02
     Exponent=  1.5583529011D+01 Coefficients=  2.3709171074D-01
     Exponent=  5.7856677022D+00 Coefficients= -3.0670977844D-01
 P 1 1.00
     Exponent=  3.7823361008D+00 Coefficients=  1.0000000000D+00
 P 1 1.00
     Exponent=  1.3682592248D+00 Coefficients=  1.0000000000D+00
 P 1 1.00
     Exponent=  5.7288205601D-01 Coefficients=  1.0000000000D+00
 P 1 1.00
     Exponent=  2.2793165135D-01 Coefficients=  1.0000000000D+00
 P 1 1.00
     Exponent=  8.1403917986D-02 Coefficients=  1.0000000000D+00
 P 1 1.00
     Exponent=  2.9091071778D-02 Coefficients=  1.0000000000D+00
 D 6 1.00
     Exponent=  4.8452750000D+02 Coefficients=  2.2860000000D-03
     Exponent=  1.4666550000D+02 Coefficients=  1.8629000000D-02
     Exponent=  5.6377900000D+01 Coefficients=  7.4088000000D-02
     Exponent=  2.3671100000D+01 Coefficients=  1.6155400000D-01
     Exponent=  9.4401000000D+00 Coefficients=  3.0809100000D-01
     Exponent=  4.3712000000D+00 Coefficients=  4.4833400000D-01
 D 1 1.00
     Exponent=  1.9580000000D+00 Coefficients=  1.0000000000D+00
 D 1 1.00
     Exponent=  7.2720000000D-01 Coefficients=  1.0000000000D+00
 D 1 1.00
     Exponent=  2.4600000000D-01 Coefficients=  1.0000000000D+00
 D 1 1.00
     Exponent=  7.4400000000D-02 Coefficients=  1.0000000000D+00
 F 5 1.00
     Exponent=  1.7515590000D+02 Coefficients=  4.1020000000D-03
     Exponent=  6.2890900000D+01 Coefficients=  3.9086000000D-02
     Exponent=  2.8362400000D+01 Coefficients=  1.4704400000D-01
     Exponent=  1.3247800000D+01 Coefficients=  2.7109200000D-01
     Exponent=  6.1440000000D+00 Coefficients=  3.4566500000D-01
 F 1 1.00
     Exponent=  2.7623000000D+00 Coefficients=  1.0000000000D+00
 F 1 1.00
     Exponent=  1.1574000000D+00 Coefficients=  1.0000000000D+00
 F 1 1.00
     Exponent=  4.2440000000D-01 Coefficients=  1.0000000000D+00
 G 1 1.00
     Exponent=  7.0090000000D-01 Coefficients=  1.0000000000D+00
 ****
 ======================================================================================================
                                       Pseudopotential Parameters
 ======================================================================================================
  Center     Atomic      Valence      Angular      Power
  Number     Number     Electrons     Momentum     of R      Exponent        Coefficient   SO-Coeffient
 ======================================================================================================
    1          6
                                   No pseudopotential on this center.
    2          6
                                   No pseudopotential on this center.
    3          6
                                   No pseudopotential on this center.
    4          6
                                   No pseudopotential on this center.
    5          6
                                   No pseudopotential on this center.
    6          6
                                   No pseudopotential on this center.
    7          6
                                   No pseudopotential on this center.
    8          6
                                   No pseudopotential on this center.
    9          6
                                   No pseudopotential on this center.
   10          1
                                   No pseudopotential on this center.
   11          1
                                   No pseudopotential on this center.
   12          1
                                   No pseudopotential on this center.
   13          1
                                   No pseudopotential on this center.
   14          1
                                   No pseudopotential on this center.
   15          8
                                   No pseudopotential on this center.
   16          8
                                   No pseudopotential on this center.
   17          8
                                   No pseudopotential on this center.
   18          8
                                   No pseudopotential on this center.
   19          6
                                   No pseudopotential on this center.
   20          6
                                   No pseudopotential on this center.
   21          1
                                   No pseudopotential on this center.
   22          1
                                   No pseudopotential on this center.
   23          1
                                   No pseudopotential on this center.
   24          1
                                   No pseudopotential on this center.
   25          1
                                   No pseudopotential on this center.
   26          1
                                   No pseudopotential on this center.
   27          8
                                   No pseudopotential on this center.
   28          8
                                   No pseudopotential on this center.
   29          8
                                   No pseudopotential on this center.
   30         16
                                   No pseudopotential on this center.
   31         16
                                   No pseudopotential on this center.
   32         16
                                   No pseudopotential on this center.
   33          8
                                   No pseudopotential on this center.
   34          8
                                   No pseudopotential on this center.
   35          8
                                   No pseudopotential on this center.
   36          8
                                   No pseudopotential on this center.
   37          8
                                   No pseudopotential on this center.
   38          8
                                   No pseudopotential on this center.
   39          6
                                   No pseudopotential on this center.
   40          6
                                   No pseudopotential on this center.
   41          6
                                   No pseudopotential on this center.
   42          9
                                   No pseudopotential on this center.
   43          9
                                   No pseudopotential on this center.
   44          9
                                   No pseudopotential on this center.
   45          9
                                   No pseudopotential on this center.
   46          9
                                   No pseudopotential on this center.
   47          9
                                   No pseudopotential on this center.
   48          9
                                   No pseudopotential on this center.
   49          9
                                   No pseudopotential on this center.
   50          9
                                   No pseudopotential on this center.
   51          6
                                   No pseudopotential on this center.
   52          1
                                   No pseudopotential on this center.
   53          6
                                   No pseudopotential on this center.
   54          6
                                   No pseudopotential on this center.
   55          6
                                   No pseudopotential on this center.
   56          6
                                   No pseudopotential on this center.
   57          6
                                   No pseudopotential on this center.
   58          6
                                   No pseudopotential on this center.
   59          1
                                   No pseudopotential on this center.
   60          1
                                   No pseudopotential on this center.
   61          1
                                   No pseudopotential on this center.
   62          7
                                   No pseudopotential on this center.
   63          7
                                   No pseudopotential on this center.
   64          7
                                   No pseudopotential on this center.
   65          7
                                   No pseudopotential on this center.
   66          6
                                   No pseudopotential on this center.
   67          1
                                   No pseudopotential on this center.
   68         71           43
                                      H and up 
                                                     2        1.0000000        0.00000000    0.00000000
                                      S - H
                                                     2       35.1620970      989.99558400    0.00000000
                                      P - H
                                                     2       19.4644020      278.86565200    0.00000000
                                      D - H
                                                     2       10.0068650       71.00917800    0.00000000
                                      F - H
                                                     2       23.5179320      -47.40589000    0.00000000
                                      G - H
                                                     2       29.4122380      -35.55714600    0.00000000
   69          8
                                   No pseudopotential on this center.
 ======================================================================================================
 Ernie: Thresh=  0.10000D-02 Tol=  0.10000D-05 Strict=F.
 There are   991 symmetry adapted cartesian basis functions of A   symmetry.
 There are   916 symmetry adapted basis functions of A   symmetry.
   916 basis functions,  1662 primitive gaussians,   991 cartesian basis functions
   230 alpha electrons      230 beta electrons
       nuclear repulsion energy     11827.2075698174 Hartrees.
 IExCor= 7252 DFT=T Ex+Corr=MN15 ExCW=0 ScaHFX=  0.440000
 ScaDFX=  1.000000  1.000000  1.000000  1.000000 ScalE2=  1.000000  1.000000
 IRadAn=      5 IRanWt=     -1 IRanGd=            0 ICorTp=0 IEmpDi=  4
 NAtoms=   69 NActive=   69 NUniq=   69 SFac= 1.00D+00 NAtFMM=   60 NAOKFM=T Big=T
 Integral buffers will be    131072 words long.
 Raffenetti 2 integral format.
 Two-electron integral symmetry is turned on.
 ------------------------------------------------------------------------------
 Polarizable Continuum Model (PCM)
 =================================
 Model                : PCM.
 Atomic radii         : SMD-Coulomb.
 Polarization charges : Total charges.
 Charge compensation  : None.
 Solution method      : On-the-fly selection.
 Cavity type          : VdW (van der Waals Surface) (Alpha=1.000).
 Cavity algorithm     : GePol (No added spheres)
                        Default sphere list used, NSphG=   69.
                        Lebedev-Laikov grids with approx.  5.0 points / Ang**2.
                        Smoothing algorithm: York/Karplus (Gamma=1.0000).
                        Polarization charges: spherical gaussians, with
                                              point-specific exponents (IZeta= 3).
                        Self-potential: point-specific (ISelfS= 7).
                        Self-field    : sphere-specific E.n sum rule (ISelfD= 2).
 1st derivatives      : Analytical E(r).r(x)/FMM algorithm (CHGder, D1EAlg=3).
                        Cavity 1st derivative terms included.
 Solvent              : DiChloroEthane, Eps=  10.125000 Eps(inf)=   2.087447
[...]
 09,-0.00001368,-0.00045960,-0.00102934,0.00025073,-0.00011232,-0.00002
 875,0.00005007,0.00040045,-0.00061027,-0.00011004,-0.00423544,-0.00626
 300,-0.01500203,-0.00155955,0.00104654,-0.00367315,0.00409199,-0.04522
 928,-0.03520823,0.00415423,0.06426385,-0.00004432,-0.00000758,0.000035
 71,0.00002002,0.00001152,-0.00001109,0.00000284,0.00000182,0.00001023,
 -0.00000402,-0.00000063,-0.00000323,0.00001030,0.00000111,0.00000747,-
 0.00000800,-0.00000680,-0.00003821,0.00493828,0.00345471,-0.01228200,-
 0.00004715,0.00174848,0.00128737,-0.00094677,-0.00041959,-0.00029012,0
 .00000073,-0.00000115,0.00000218,0.00000154,-0.00000025,-0.00000013,0.
 00000209,-0.00000043,0.00000083,0.00000045,0.00000062,-0.00000079,-0.0
 0000425,0.00001730,0.00001239,0.00057374,0.00004461,0.00023695,0.00054
 029,-0.00027001,-0.00022644,-0.00000905,0.00008629,-0.00008703,-0.0001
 3346,0.00126148,-0.00012830,-0.00000714,-0.00001678,0.00013830,0.00001
 744,0.00015288,-0.00004732,0.00000112,-0.00000973,-0.00001158,-0.00001
 375,-0.00000612,-0.00003600,0.00000200,-0.00000578,-0.00001041,0.00000
 267,-0.00000244,-0.00000020,-0.00000232,0.00000145,0.00001001,0.000001
 75,-0.00000859,-0.00001296,0.00000568,-0.00000219,0.00001976,0.0000233
 7,-0.00000893,0.00000739,0.00000315,0.00003359,0.00002330,-0.00002413,
 -0.00006914,0.00002088,-0.00000129,-0.00000481,-0.00001977,-0.00005054
 ,0.00003275,0.00001612,0.00001118,0.00002088,-0.00000045,0.00000702,0.
 00002236,0.00000097,0.00000367,0.00000839,0.00001729,0.00000051,0.0000
 0145,0.00000904,0.00004215,-0.00001624,0.00002547,0.00001031,-0.000007
 82,-0.00000072,-0.00001773,0.00000624,-0.00001472,-0.00000403,-0.00000
 332,-0.00000774,-0.00000566,-0.00005337,0.00000706,0.00000406,-0.00000
 364,0.00000815,0.00000752,0.00000194,0.00000324,0.00000840,-0.00000592
 ,-0.00000019,0.00000139,0.00000090,0.00000608,0.00000116,0.00000007,0.
 00000129,0.00000109,0.00000186,0.00000126,0.00000932,0.00003170,0.0000
 0205,0.00000471,0.00000862,-0.00000908,-0.00000983,0.00001548,0.000001
 77,-0.00039983,-0.00021224,-0.00016596,0.00006166,0.00002149,0.0000538
 8,-0.00024814,0.00019056,-0.00008550,0.00013771,0.00000451,0.00030122,
 -0.00003744,0.00030369,-0.00000600,0.00190565,-0.00291569,-0.00135060,
 -0.00019459,0.00021024,-0.00009825,0.00080773,0.00130550,0.00071376,-0
 .00035035,-0.00033722,0.00080727,0.00006619,-0.00013646,0.00007895,-0.
 00005626,0.00002381,-0.00005944,0.00002415,0.00002907,-0.00006737,0.00
 116902,-0.00011278,-0.00045364,-0.00518002,-0.00900113,-0.00800806,-0.
 00076416,0.00271560,0.00071756,0.02426409,-0.03782349,-0.31026972,-0.0
 2564901,0.04015331,0.32858649,0.00013721,0.00053210,0.00005788,0.00007
 940,-0.00023149,-0.00025389,0.00009156,-0.00006283,0.00004028,0.000099
 81,-0.00007688,0.00001442,0.00006217,0.00005111,0.00005699,0.00006858,
 -0.00014794,-0.00004721,-0.00327766,0.00413874,-0.00132970,-0.04163077
 ,-0.00822800,-0.00946008,-0.03615865,0.01459045,0.01095590,-0.00004261
 ,0.00001339,-0.00000528,0.00005726,-0.00003257,0.00001704,0.00003949,-
 0.00002635,0.00000438,0.00001876,-0.00004349,-0.00002793,-0.00020163,0
 .00017293,0.00025233,-0.01595243,-0.00845156,0.02062531,-0.01677016,-0
 .00757018,-0.01587733,0.01303880,0.00440855,0.01341509,0.00716888,-0.0
 1163157,-0.01006963,0.00101756,-0.00170477,-0.00570131,0.00208587,0.00
 300273,0.00455381,0.00011941,0.00018270,0.00035566,-0.00036350,-0.0000
 4502,0.00049679,-0.00035250,0.00027136,0.00033095,0.00008184,-0.000224
 29,-0.00037675,0.00005235,0.00013792,-0.00010248,-0.00040496,-0.000291
 55,-0.00029673,-0.01558664,0.01225982,-0.00455576,-0.01905031,-0.00315
 408,0.01413523,-0.01889181,-0.00605147,0.01032213,0.02787720,0.0166341
 8,-0.02388969,-0.02688265,-0.03047012,-0.04098707,0.00931256,0.0388819
 5,0.00072495,-0.01842817,0.00063263,0.00839433,-0.00545158,-0.00422757
 ,0.00260427,-0.01107514,0.00226125,-0.00088837,0.00466489,0.00502210,0
 .01032621,-0.01386040,-0.00558422,0.00396425,-0.00218176,-0.00809670,-
 0.00239838,-0.00554101,0.00668864,0.00073383,-0.01589548,-0.00555812,-
 0.00421706,-0.00250893,0.00409031,-0.00138403,0.00130330,-0.00214985,0
 .00202903,-0.00001404,-0.00274725,-0.00059890,0.00226876,-0.00261450,-
 0.00118490,0.00697314,0.00330022,0.00408293,0.00531869,-0.00130302,0.0
 0069918,0.00451451,0.00590850,-0.00012219,-0.00035658,-0.00207223,0.00
 049979,-0.00017865,-0.00109186,0.00326213,0.00010574,-0.00059507,-0.00
 013524,-0.00331053,-0.00181519,-0.00064405,-0.00006495,0.00038850,0.00
 008713,-0.00090844,0.00032835,0.00080524,-0.00023197,0.00001525,-0.000
 21872,-0.00011462,-0.00004211,0.00023415,0.00040121,0.00092233,-0.0000
 1124,-0.00005075,-0.00055190,-0.00019195,-0.00001599,0.00005920,-0.000
 58483,0.00044495,-0.00077764,0.00026704,0.00006361,0.00002563,0.000101
 14,0.00002932,0.00011865,0.00010935,0.00034307,0.00011336,0.00010881,0
 .00017446,-0.00001096,-0.00026721,0.00228042,0.00231624,-0.00008513,0.
 00045538,0.00000879,-0.00008190,-0.00180882,-0.00603431,0.00115806,0.0
 0005765,0.00071446,-0.00007098,0.17952211,-0.00007313,0.00011743,0.000
 04448,0.00001396,-0.00006019,-0.00005323,0.00001894,-0.00003071,0.0000
 0390,0.00003952,-0.00003922,0.00000689,-0.00000344,-0.00001621,0.00001
 680,0.00006768,-0.00008277,0.00003076,-0.00054937,0.00095122,-0.000112
 51,-0.01400287,-0.00106957,-0.00234144,-0.00235587,0.00723457,0.000502
 29,-0.00001001,0.00001270,-0.00001586,0.00001520,-0.00000330,-0.000003
 14,0.00001281,0.00000056,-0.00000468,0.00002894,-0.00001236,-0.0000249
 2,-0.00000894,0.00008280,0.00000798,-0.00539879,-0.01005726,0.00673664
 ,-0.00421919,-0.01269695,-0.00641094,0.00517544,0.00305612,0.00386574,
 0.00241277,-0.00422876,-0.00211410,0.00017139,-0.00014777,-0.00186555,
 0.00127811,0.00136178,0.00040950,0.00006710,-0.00000464,0.00011249,-0.
 00023263,-0.00022145,0.00013586,-0.00015281,0.00024867,0.00026545,-0.0
 0027473,-0.00023660,0.00008392,-0.00005874,-0.00067818,-0.00107313,-0.
 00027718,-0.00016273,0.00005844,0.00692953,-0.02658799,0.00392618,0.00
 304489,-0.01575841,-0.00567026,-0.00165752,-0.00165817,-0.00634684,0.0
 1306363,-0.05856774,0.02595736,-0.02923631,0.03725376,-0.01992629,0.03
 371688,-0.04485289,-0.04396335,-0.00681070,-0.01593738,0.01090798,0.00
 041329,0.01144460,-0.00182033,0.00690704,-0.03101866,-0.00108783,0.004
 49460,-0.00556959,0.00456848,-0.00877501,-0.01562578,0.01100767,-0.002
 76888,0.00857253,0.00999585,0.01296228,-0.00394379,0.00641648,-0.00530
 433,-0.00316803,0.00004503,0.01025418,0.00043893,0.01190081,-0.0026794
 7,0.00169342,-0.00274861,-0.00495619,-0.00150478,-0.00150645,-0.005777
 88,0.00429547,0.00097817,0.00271373,-0.00040310,0.00073265,0.00454081,
 -0.00146079,-0.00040273,0.00020921,0.00019265,0.00032706,-0.00334285,-
 0.00244574,-0.00286687,-0.00101154,0.00119360,-0.00618159,-0.00509777,
 0.00287420,-0.00253127,-0.00050264,-0.00025920,-0.00016366,-0.00010403
 ,0.00011852,-0.00000965,-0.00047847,0.00026614,0.00033643,-0.00006090,
 0.00002177,-0.00001388,-0.00001292,-0.00000662,0.00005018,-0.00027088,
 0.00048334,-0.00057455,-0.00044973,-0.00037380,-0.00058545,0.00058344,
 0.00012296,-0.00016780,-0.00076978,-0.00100086,0.00134689,0.00008678,0
 .00000479,0.00009123,-0.00014886,-0.00042333,0.00000316,0.00012598,0.0
 0000603,0.00001666,0.00004792,-0.00004931,-0.00008302,0.00022533,-0.00
 026049,-0.00075565,0.00071546,0.00028225,0.00088877,-0.00037501,-0.000
 20707,0.00017086,0.00008232,0.00018928,-0.00004200,-0.00408822,0.17900
 948,-0.00009726,-0.00005464,-0.00013046,-0.00001719,0.00004340,0.00001
 255,-0.00001234,0.00000143,-0.00003790,-0.00000175,0.00001115,0.000000
 82,-0.00003219,-0.00000238,-0.00003786,0.00011665,0.00000401,0.0000877
 5,-0.00016627,0.00078226,0.00172281,-0.02527555,-0.00370823,0.00132142
 ,0.03441419,-0.01181476,0.00051455,-0.00002575,-0.00001670,0.00000212,
 -0.00001263,0.00000103,0.00000226,-0.00000702,-0.00000348,0.00000270,0
 .00001072,-0.00001668,0.00000527,0.00011171,-0.00004824,-0.00002624,0.
 00497046,0.00769712,-0.02641012,-0.00353106,-0.00491342,-0.01736978,0.
 00912987,0.00227575,0.00524101,-0.00882588,0.00875724,0.00645004,0.000
 09205,-0.00069632,-0.00261505,-0.00079382,-0.00149459,-0.00283949,0.00
 017402,0.00007302,0.00006295,-0.00035048,-0.00023597,0.00020574,-0.000
 28245,0.00016897,-0.00007466,-0.00040893,-0.00000944,0.00027548,0.0006
 8772,-0.00117274,0.00005639,0.00045358,0.00028905,-0.00005068,-0.00560
 827,0.00845220,-0.01556141,0.01387894,0.00305512,-0.03158093,0.0075170
 4,-0.00014510,-0.01649256,-0.02429230,0.03319517,0.01612276,-0.0390522
 5,-0.01988354,-0.02829558,-0.00247380,-0.04279000,0.01787118,0.0129928
 2,0.00731253,-0.02981695,0.00221511,-0.00807274,-0.00348839,0.00073559
 ,-0.00528370,-0.01240415,0.00522691,0.00292896,0.00714921,0.00420367,0
 .00486807,-0.01835570,0.00151458,0.00688558,-0.00169077,0.00699091,0.0
 0160102,0.00356121,-0.00768983,-0.00144809,0.01250408,-0.00191306,0.00
 299289,-0.00648556,-0.00206469,0.00119196,-0.00429384,-0.00148378,-0.0
 0068011,-0.00115845,-0.00224351,0.00110192,0.00008641,0.00017477,-0.00
 023069,-0.00659684,0.00432917,-0.00074182,-0.00195177,0.00344151,0.003
 25201,-0.00233691,0.00091957,-0.00088004,0.00110666,0.00005499,-0.0006
 1612,0.00111857,0.00329111,-0.00258779,0.00146343,0.00007177,0.0001567
 2,0.00014239,-0.00036164,-0.00004170,-0.00005695,0.00007708,0.00001495
 ,0.00005965,-0.00002536,0.00000669,0.00004530,0.00000954,0.00006901,0.
 00004615,0.00065549,-0.00009311,0.00025398,-0.00012566,-0.00017905,-0.
 00023303,0.00013735,0.00012050,-0.00022813,-0.00008259,0.00062305,0.00
 011359,-0.00004574,-0.00002827,-0.00001651,-0.00003643,-0.00016689,0.0
 0005806,-0.00001704,-0.00001752,-0.00004642,-0.00007480,-0.00003923,-0
 .00005332,-0.00034832,-0.00050571,-0.00004131,-0.00005223,0.00007140,-
 0.00006470,0.00006579,0.00106397,-0.00142766,0.00041898,0.00061937,-0.
 00022952,0.00993396,0.00972302,0.15726173,-0.04406843,-0.01067264,-0.0
 1195472,-0.00272583,0.00412851,0.00437867,-0.00075316,0.00080197,-0.00
 183107,-0.00061769,0.00041842,0.00000784,-0.00049341,-0.00038168,-0.00
 085300,0.00051826,-0.00067611,-0.00154882,-0.19963143,0.09562888,-0.01
 758675,-0.03118047,0.01874534,-0.00626711,-0.03597869,0.02380224,-0.00
 277241,0.00004535,-0.00038762,0.00046296,-0.00045854,0.00049863,-0.000
 06441,-0.00016209,0.00010395,0.00005945,-0.00012595,0.00009971,0.00020
 784,-0.00128537,0.00040363,-0.00008515,-0.01365121,-0.00399986,-0.0074
 2818,-0.00891877,-0.00126436,0.01047396,0.00227654,-0.00086139,0.00476
 322,-0.00213184,-0.00202720,-0.00223525,0.00048348,-0.00127608,-0.0015
 9900,0.00088732,0.00139608,0.00216035,-0.00006647,0.00012255,0.0003236
 3,-0.00018381,-0.00004035,0.00013506,-0.00009228,0.00025193,0.00028268
 ,-0.00004734,-0.00015298,-0.00019696,-0.00015578,0.00003556,-0.0002079
 1,-0.00024584,-0.00009576,-0.00011169,-0.00110781,-0.00029039,-0.00065
 980,-0.00092297,0.00089742,0.00050440,-0.00063737,-0.00197098,0.001193
 12,0.00087443,0.00235431,-0.00120429,0.00155179,0.00051957,0.00113329,
 0.00136612,-0.00148382,-0.00117250,-0.00024155,-0.00108079,0.00062577,
 -0.00027326,-0.00091514,0.00017649,-0.00117263,-0.00050587,-0.00061897
 ,-0.00032806,-0.00013554,-0.00045427,-0.00128888,0.00107733,0.00059985
 ,-0.00018681,0.00049361,0.00041877,0.00077059,-0.00034538,0.00027508,0
 .00066092,0.00025890,-0.00019584,-0.00041512,0.00095535,-0.00073040,-0
 .00017102,0.00014343,-0.00018355,-0.00030013,-0.00002160,-0.00005745,-
 0.00036484,0.00029396,0.00009641,-0.00019364,-0.00007440,0.00002106,-0
 .00033316,0.00007580,0.00002757,-0.00021871,-0.00027394,0.00005245,0.0
 0001183,-0.00045575,0.00024180,-0.00005003,-0.00022064,0.00054096,0.00
 038904,-0.00038945,0.00009641,-0.16842425,-0.06266694,-0.05105478,-0.0
 1288089,-0.00767348,-0.00792627,-0.03131194,-0.02190721,0.00093617,0.0
 0262803,-0.00347282,0.00406454,0.00072880,0.00032468,-0.00404280,0.003
 02319,0.00088513,-0.00051368,0.00046429,-0.00082216,-0.00110237,-0.001
 62299,0.00085342,-0.00062425,-0.00012906,-0.00025516,0.00031165,0.0001
 2680,-0.00009175,0.00017666,-0.00001665,-0.00015887,0.00044853,-0.0014
 0258,0.00008507,-0.00106141,-0.00001822,0.00039883,0.00126180,0.003002
 88,0.00236100,-0.00199090,0.00159296,0.00044139,0.00189700,-0.01035150
 ,0.00164032,-0.00317898,-0.00007667,0.00176474,-0.00041195,0.00723416,
 0.00187845,-0.00118579,0.54877837,0.01948935,0.01249024,0.00765945,0.0
 0192457,-0.00282864,-0.00142877,0.00062438,-0.00077651,0.00093816,0.00
 047692,-0.00007733,0.00032786,0.00018904,0.00059469,0.00111322,0.00130
 780,-0.00165035,-0.00292279,0.07122512,-0.13066734,-0.00856718,0.01509
 771,-0.00273091,-0.00105918,-0.00458972,0.00748817,0.00097198,0.000187
 70,0.00021785,-0.00020909,0.00019555,-0.00018943,0.00000980,0.00013233
 ,0.00000419,-0.00000472,-0.00006552,0.00002428,-0.00006658,0.00236106,
 -0.00057491,0.00018076,-0.00341268,-0.00111771,-0.00220960,0.00270090,
 -0.00076360,-0.00223751,-0.00230791,0.00112568,0.00095189,-0.00496912,
 -0.00015640,-0.00312928,-0.00007080,-0.00032078,0.00002677,-0.00033922
 ,0.00066832,0.00073974,0.00000181,-0.00000999,-0.00000541,-0.00003890,
 0.00007581,-0.00000037,-0.00001673,-0.00000566,0.00009564,0.00008388,0
 .00000507,0.00008075,-0.00009730,-0.00008588,-0.00010837,-0.00013392,-
 0.00003647,-0.00009992,0.00004523,0.00008862,0.00009334,0.00013859,0.0
 0005962,-0.00003565,-0.00018018,0.00027087,0.00027540,0.00039822,-0.00
 027613,-0.00010388,0.00002828,-0.00016493,-0.00003985,-0.00038631,0.00
 002429,0.00020076,-0.00013969,0.00027332,0.00001810,-0.00007200,0.0000
 5335,0.00000937,-0.00004549,0.00009123,0.00003464,-0.00000161,0.000034
 96,0.00002088,0.00032422,0.00000003,-0.00004992,0.00009113,-0.00000597
 ,-0.00003995,-0.00014827,0.00000336,-0.00004940,-0.00001785,-0.0000383
 5,-0.00001053,0.00039042,-0.00009680,-0.00015342,0.00003115,-0.0000060
 5,0.00002060,0.00006954,0.00003507,0.00001575,0.00006191,-0.00003607,-
 0.00001266,0.00000558,0.00001235,0.00000905,-0.00000726,0.00001167,0.0
 0000130,0.00001115,0.00002822,0.00000039,-0.00016398,0.00009003,-0.000
 00356,-0.00007928,-0.00000528,0.00008142,-0.00018610,0.00008834,0.0000
 5084,-0.04669833,-0.11063432,-0.02978913,-0.01390935,-0.00336209,-0.00
 426066,-0.03747451,-0.01976898,-0.00735389,0.00016164,-0.00573503,0.00
 524610,0.00113808,0.00052517,-0.00267557,-0.00498965,-0.00478992,0.003
 64281,-0.00004052,0.00036347,0.00175756,0.00166926,-0.00114386,-0.0000
 0361,0.00042316,-0.00007043,-0.00030169,-0.00012437,-0.00011506,-0.000
 06729,0.00019630,0.00040793,-0.00080456,-0.00148353,0.00037051,-0.0012
 5876,-0.00055857,0.00009097,0.00061710,0.00303112,0.01125756,-0.000736
 79,-0.00023207,-0.00073363,-0.00308761,0.03685616,-0.02673966,0.002828
 59,-0.00060913,0.00164806,-0.00041399,-0.00038745,-0.00069738,-0.00079
 173,-0.03709193,0.27788854,-0.00408561,0.00073151,0.00185232,-0.000038
 00,0.00001050,0.00086466,-0.00020222,0.00046167,0.00014098,-0.00007931
 ,-0.00027779,-0.00036896,0.00082006,0.00017770,0.00097243,0.00032323,-
 0.00132900,-0.00223277,-0.01605029,-0.00555619,-0.05883898,0.02167737,
 -0.01660301,0.00662970,-0.01692595,0.01125984,0.00032483,0.00024794,-0
 .00005545,0.00025145,-0.00004254,0.00008767,-0.00002078,0.00004637,0.0
 0003680,0.00005068,-0.00007997,0.00004318,0.00003402,0.00197492,-0.000
 37079,0.00014620,-0.00738572,-0.00233437,-0.00241249,0.00414466,0.0027
 0045,-0.00460266,-0.00074248,0.00129982,0.00158280,-0.00657563,-0.0005
 3352,-0.00293669,0.00014249,0.00047096,0.00122080,-0.00015090,0.001144
 59,0.00152715,-0.00005602,0.00004171,0.00003919,0.00017241,-0.00002951
 ,-0.00009632,-0.00005940,-0.00005647,-0.00005748,0.00009084,-0.0000014
 3,-0.00002186,-0.00019993,-0.00004590,-0.00020673,-0.00012496,-0.00004
 610,-0.00011265,-0.00015336,-0.00004608,0.00003333,0.00003678,0.000003
 13,0.00016763,-0.00005474,-0.00014498,0.00037073,0.00000750,0.00006414
 ,-0.00046616,0.00030495,0.00006823,0.00008921,-0.00000162,0.00008799,-
 0.00025078,0.00006760,-0.00000385,0.00021754,0.00001433,-0.00001512,0.
 00011120,-0.00022601,-0.00006050,0.00004915,-0.00005686,-0.00001804,-0
 .00002299,-0.00008086,0.00002342,0.00024067,0.00000363,0.00001698,0.00
 008234,0.00003140,-0.00001524,-0.00003830,0.00009290,0.00004151,-0.000
 09863,-0.00050440,-0.00039322,-0.00006683,-0.00000320,-0.00000714,0.00
 003172,-0.00001385,-0.00000243,0.00000868,-0.00001807,0.00001746,0.000
 01769,-0.00002131,-0.00000755,0.00004590,-0.00005318,0.00000952,0.0000
 1710,-0.00003615,-0.00004387,0.00001961,0.00026612,0.00027195,0.000024
 29,0.00010640,0.00005168,0.00000934,0.00010644,0.00004374,0.00002502,-
 0.04076592,-0.03362573,-0.07201493,-0.03212398,-0.01488512,-0.00431671
 ,0.01010332,0.00472987,0.00795935,0.00053159,0.00426676,-0.00148895,-0
 .00001241,-0.00273000,0.00080509,0.00267020,0.00155676,-0.00103772,-0.
 00003012,0.00011071,-0.00051279,-0.00112846,0.00081686,0.00017637,-0.0
 0023086,-0.00004718,0.00016722,0.00002181,-0.00001910,0.00009495,-0.00
 003651,-0.00008076,0.00037110,0.00067313,-0.00037373,0.00065227,0.0008
 4517,0.00130499,0.00057150,0.00030597,-0.00188649,-0.00155479,0.000272
 38,-0.00030466,0.00065868,-0.01309427,0.00730307,0.00407975,0.00027997
 ,-0.00317310,0.00086084,0.00030597,-0.00020454,-0.00242863,0.09475722,
 0.04607280,0.12261107\\-0.00000051,-0.00000224,-0.00000226,-0.00000024
 ,-0.00000355,-0.00000253,-0.00000077,-0.00000398,-0.00000364,-0.000001
 61,-0.00000309,-0.00000439,-0.00000192,-0.00000179,-0.00000407,-0.0000
 0136,-0.00000138,-0.00000290,0.,-0.00000014,0.00000015,0.00000148,-0.0
 0000099,0.00000045,-0.00000104,0.00000129,-0.00000029,0.00000047,-0.00
 000431,-0.00000193,-0.00000052,-0.00000501,-0.00000391,-0.00000204,-0.
 00000342,-0.00000529,-0.00000257,-0.00000111,-0.00000464,-0.00000156,-
 0.00000036,-0.00000264,-0.00000025,0.00000189,0.00000054,0.00000015,-0
 .00000022,0.00000077,0.00000080,-0.00000218,0.00000015,-0.00000127,0.0
 0000154,-0.00000113,0.00000167,-0.00000298,0.00000082,-0.00000209,0.00
 000276,-0.00000141,0.00000208,-0.00000386,0.00000077,0.00000216,-0.000
 00231,0.00000178,0.00000141,-0.00000300,0.00000027,-0.00000262,0.00000
 282,-0.00000224,-0.00000211,0.00000282,-0.00000153,-0.00000190,0.00000
 356,-0.00000068,-0.00000034,0.00000365,0.00000176,0.00000080,0.0000004
 3,0.00000208,-0.00000134,0.00000071,-0.00000125,-0.00000073,-0.0000002
 8,-0.00000202,-0.00000090,0.00000422,0.00000114,0.00000200,0.00000175,
 0.00000350,-0.00000076,0.00000061,-0.00000024,-0.00000207,0.00000087,-
 0.00000258,-0.00000169,0.00000329,-0.00000048,-0.00000194,0.00000555,0
 .00000054,0.00000109,0.00000179,0.00000279,0.00000234,0.00000021,0.000
 00357,0.00000178,0.00000327,0.00000334,-0.00000117,0.00000362,0.000000
 66,-0.00000063,-0.00000158,-0.00000218,0.00000136,0.00000338,0.0000048
 7,0.00000072,0.00000279,0.00000350,0.00000229,0.00000230,0.00000516,-0
 .00000051,0.00000294,0.00000107,-0.00000095,0.00000503,0.00000179,-0.0
 0000178,0.00000461,0.,-0.00000017,-0.00000200,-0.00000140,-0.00000060,
 -0.00000226,-0.00000211,-0.00000145,-0.00000177,-0.00000338,0.00000019
 ,-0.00000191,-0.00000079,0.00000063,-0.00000269,-0.00000069,0.00000043
 ,-0.00000127,-0.00000009,0.00000103,-0.00000231,0.00000022,0.,-0.00000
 011,-0.00000017,0.00000129,0.00000065,0.00000227,0.00000235,-0.0000016
 3,0.00000270,0.00000213,-0.00000030,0.00000299,0.00000103,0.00000153,0
 .00000254,0.00000301,-0.00000236,0.00000311,0.00000252,-0.00000009,0.0
 0000381,0.00000142,-0.00000314,0.00000017,-0.00000071,0.00000071,-0.00
 000061,0.00000121,-0.00000080,0.00000125,0.00000177,-0.00000185,0.0000
 0165,0.00000061,0.00000028,0.00000116,0.00000024,0.00000109,0.00000096
 ,-0.00000006,0.00000113,0.00000024,-0.00000027,-0.00000080,-0.00000108
 \\\@


 YOU KNOW YOU'RE A TEACHER WHEN YOU SAY 2, WRITE 3, AND MEAN 4.
 -- RONALD ANSTROM, HIGH SCHOOL TEACHER, UNDERWOOD, N.D. 1974
 Job cpu time:       4 days  6 hours 21 minutes 40.9 seconds.
 Elapsed time:       0 days  4 hours 16 minutes 48.1 seconds.
 File lengths (MBytes):  RWF=  13900 Int=      0 D2E=      0 Chk=    120 Scr=      8
 Normal termination of Gaussian 16 at Mon Apr 28 09:43:55 2025.
