 Entering Gaussian System, Link 0=/sysapps/ubuntu-applications/gaussian-new/avx/g16//g16
 Input=i3-major.in
 Output=i3-major.log
 Initial command:
 /sysapps/ubuntu-applications/gaussian-new/avx/g16/l1.exe "/data/temp-scratch/selhajj1/7552506/Gau-1575874.inp" -scrdir="/data/temp-scratch/selhajj1/7552506/"
 Entering Link 1 = /sysapps/ubuntu-applications/gaussian-new/avx/g16/l1.exe PID=   1575876.
  
 Copyright (c) 1988,1990,1992,1993,1995,1998,2003,2009,2016,
            Gaussian, Inc.  All Rights Reserved.
  
 This is part of the Gaussian(R) 16 program.  It is based on
 the Gaussian(R) 09 system (copyright 2009, Gaussian, Inc.),
 the Gaussian(R) 03 system (copyright 2003, Gaussian, Inc.),
 the Gaussian(R) 98 system (copyright 1998, Gaussian, Inc.),
 the Gaussian(R) 94 system (copyright 1995, Gaussian, Inc.),
 the Gaussian 92(TM) system (copyright 1992, Gaussian, Inc.),
 the Gaussian 90(TM) system (copyright 1990, Gaussian, Inc.),
 the Gaussian 88(TM) system (copyright 1988, Gaussian, Inc.),
 the Gaussian 86(TM) system (copyright 1986, Carnegie Mellon
 University), and the Gaussian 82(TM) system (copyright 1983,
 Carnegie Mellon University). Gaussian is a federally registered
 trademark of Gaussian, Inc.
  
 This software contains proprietary and confidential information,
 including trade secrets, belonging to Gaussian, Inc.
  
 This software is provided under written license and may be
 used, copied, transmitted, or stored only in accord with that
 written license.
  
 The following legend is applicable only to US Government
 contracts under FAR:
  
                    RESTRICTED RIGHTS LEGEND
  
 Use, reproduction and disclosure by the US Government is
 subject to restrictions as set forth in subparagraphs (a)
 and (c) of the Commercial Computer Software - Restricted
 Rights clause in FAR 52.227-19.
  
 Gaussian, Inc.
 340 Quinnipiac St., Bldg. 40, Wallingford CT 06492
  
  
 ---------------------------------------------------------------
 Warning -- This program may not be used in any manner that
 competes with the business of Gaussian, Inc. or will provide
 assistance to any competitor of Gaussian, Inc.  The licensee
 of this program is prohibited from giving any competitor of
 Gaussian, Inc. access to this program.  By using this program,
 the user acknowledges that Gaussian, Inc. is engaged in the
 business of creating and licensing software in the field of
 computational chemistry and represents and warrants to the
 licensee that it is not a competitor of Gaussian, Inc. and that
 it will not use this program in any manner prohibited above.
 ---------------------------------------------------------------
  

 Cite this work as:
 Gaussian 16, Revision A.03,
 M. J. Frisch, G. W. Trucks, H. B. Schlegel, G. E. Scuseria, 
 M. A. Robb, J. R. Cheeseman, G. Scalmani, V. Barone, 
 G. A. Petersson, H. Nakatsuji, X. Li, M. Caricato, A. V. Marenich, 
 J. Bloino, B. G. Janesko, R. Gomperts, B. Mennucci, H. P. Hratchian, 
 J. V. Ortiz, A. F. Izmaylov, J. L. Sonnenberg, D. Williams-Young, 
 F. Ding, F. Lipparini, F. Egidi, J. Goings, B. Peng, A. Petrone, 
 T. Henderson, D. Ranasinghe, V. G. Zakrzewski, J. Gao, N. Rega, 
 G. Zheng, W. Liang, M. Hada, M. Ehara, K. Toyota, R. Fukuda, 
 J. Hasegawa, M. Ishida, T. Nakajima, Y. Honda, O. Kitao, H. Nakai, 
 T. Vreven, K. Throssell, J. A. Montgomery, Jr., J. E. Peralta, 
 F. Ogliaro, M. J. Bearpark, J. J. Heyd, E. N. Brothers, K. N. Kudin, 
 V. N. Staroverov, T. A. Keith, R. Kobayashi, J. Normand, 
 K. Raghavachari, A. P. Rendell, J. C. Burant, S. S. Iyengar, 
 J. Tomasi, M. Cossi, J. M. Millam, M. Klene, C. Adamo, R. Cammi, 
 J. W. Ochterski, R. L. Martin, K. Morokuma, O. Farkas, 
 J. B. Foresman, and D. J. Fox, Gaussian, Inc., Wallingford CT, 2016.
 
 ******************************************
 Gaussian 16:  ES64L-G16RevA.03 25-Dec-2016
                 8-Feb-2025 
 ******************************************
 %chk=i3-major.chk
 %mem=616Gb
 %nprocshared=24
 Will use up to   24 processors via shared memory.
 ----------------------------------------------------------------------
 #P UMN15/genecp scf=(maxcyc=500) freq scrf=(smd,solvent=DiChloroEthane
 )
 ----------------------------------------------------------------------
 1/10=4,30=1,38=1/1,3;
 2/12=2,17=6,18=5,40=1/2;
 3/5=7,11=2,16=1,17=8,25=1,30=1,70=32201,71=2,72=10,74=-73,116=2,140=1/1,2,3;
 4//1;
 5/5=2,7=500,38=5,53=10,98=1/2;
 8/6=4,10=90,11=11/1;
 11/6=1,8=1,9=11,15=111,16=1/1,2,10;
 10/6=1/2;
 6/7=2,8=2,9=2,10=2,28=1/1;
 7/8=1,10=1,25=1/1,2,3,16;
 1/10=4,30=1/3;
 99//99;
 Leave Link    1 at Sat Feb  8 14:08:03 2025, MaxMem= 82678120448 cpu:               3.2 elap:               0.2
 (Enter /sysapps/ubuntu-applications/gaussian-new/avx/g16/l101.exe)
 ----
 Freq
 ----
 Symbolic Z-matrix:
 Charge =  0 Multiplicity = 2
 C                    -4.82323   1.19702   0.81114 
 C                    -5.63647   1.93375  -0.05878 
 C                    -6.44318   2.95455   0.44357 
 C                    -6.43039   3.24511   1.81018 
 C                    -5.61153   2.51532   2.67574 
 C                    -4.80793   1.4876    2.18108 
 C                    -1.88195  -1.01603   0.55639 
 C                    -1.37225  -0.53687  -0.8231 
 C                    -0.74465  -0.95091   1.59841 
 H                    -5.63155   1.70877  -1.12893 
 H                    -7.07536   3.53037  -0.23526 
 H                    -7.05719   4.04921   2.20194 
 H                    -5.5954    2.74811   3.74235 
 H                    -4.16245   0.919     2.85382 
 O                    -0.06059   0.04028   1.73453 
 O                    -0.68117   0.44826  -0.96005 
 O                    -1.84299  -1.25446  -1.80976 
 O                    -0.66648  -2.02736   2.3279 
 C                    -1.47603  -0.86883  -3.14877 
 C                     0.40844  -2.08169   3.28461 
 H                    -1.8306   -1.67129  -3.80302 
 H                    -0.3869   -0.76276  -3.219 
 H                    -1.96458   0.08246  -3.39765 
 H                     0.36473  -3.07816   3.73374 
 H                     0.26145  -1.30622   4.04764 
 H                     1.36095  -1.92049   2.76091 
 O                     3.0326   -0.87467   1.37111 
 O                     1.97265  -0.87355  -1.96804 
 O                     0.65458   2.96566   0.40881 
 S                     1.25583   3.60794  -0.7835 
 S                     3.82861   0.20162   2.01655 
 S                     1.47025  -2.15889  -1.42974 
 O                     1.93233   2.57223  -1.60825 
 O                     1.97531   4.84693  -0.57436 
 O                     3.17759   1.50886   1.75255 
 O                     4.31112  -0.04744   3.35627 
 O                     0.78503  -1.92075  -0.13031 
 O                     0.75302  -3.022    -2.35155 
 C                     3.00707  -3.10509  -0.96892 
 C                     5.30779   0.28052   0.93124 
 C                    -0.18875   4.09769  -1.80748 
 F                     2.82336  -3.714     0.1882 
 F                     4.04517  -2.29522  -0.88897 
 F                     3.24129  -4.01193  -1.90347 
 F                     4.9005    0.55807  -0.30642 
 F                     5.94333  -0.87865   0.92562 
 F                     6.13422   1.2301    1.33402 
 F                    -0.89273   3.03771  -2.17304 
 F                     0.23301   4.72731  -2.89427 
 F                    -0.9684    4.91257  -1.11215 
 C                    -3.98559   0.07911   0.25785 
 H                    -3.75223   0.27196  -0.80466 
 C                    -4.74906  -1.31126   0.27327 
 C                    -5.92976  -1.24988  -0.59905 
 C                    -5.14857  -1.6366    1.65776 
 C                    -1.68102  -3.5208   -0.04638 
 C                    -3.32274  -3.94144  -1.73383 
 C                    -2.07896  -4.24936  -1.12943 
 H                    -0.7347   -3.70622   0.46192 
 H                    -3.68052  -4.46786  -2.62071 
 H                    -1.45894  -5.04869  -1.53486 
 N                    -6.87255  -1.1184   -1.25457 
 N                    -5.43411  -1.87994   2.75156 
 N                    -3.80431  -2.3354   -0.21412 
 N                    -4.14819  -3.01435  -1.25855 
 C                    -2.53618  -2.44067   0.50016 
 H                    -2.75921  -2.67196   1.56277 
 Yb                    1.60779   0.68376  -0.01191 
 O                    -2.82951  -0.09882   1.03484 
 
 ITRead=  0  0  0  0  0  0  0  0  0  0  0  0  0  0  0  0  0  0  0  0
 ITRead=  0  0  0  0  0  0  0  0  0  0  0  0  0  0  0  0  0  0  0  0
 ITRead=  0  0  0  0  0  0  0  0  0  0  0  0  0  0  0  0  0  0  0  0
 ITRead=  0  0  0  0  0  0  0  0  0
 MicOpt= -1 -1 -1 -1 -1 -1 -1 -1 -1 -1 -1 -1 -1 -1 -1 -1 -1 -1 -1 -1
 MicOpt= -1 -1 -1 -1 -1 -1 -1 -1 -1 -1 -1 -1 -1 -1 -1 -1 -1 -1 -1 -1
 MicOpt= -1 -1 -1 -1 -1 -1 -1 -1 -1 -1 -1 -1 -1 -1 -1 -1 -1 -1 -1 -1
 MicOpt= -1 -1 -1 -1 -1 -1 -1 -1 -1
 NAtoms=     69 NQM=       69 NQMF=       0 NMMI=      0 NMMIF=      0
                NMic=       0 NMicF=      0.
                    Isotopes and Nuclear Properties:
 (Nuclear quadrupole moments (NQMom) in fm**2, nuclear magnetic moments (NMagM)
  in nuclear magnetons)

  Atom         1           2           3           4           5           6           7           8           9          10
 IAtWgt=          12          12          12          12          12          12          12          12          12           1
 AtmWgt=  12.0000000  12.0000000  12.0000000  12.0000000  12.0000000  12.0000000  12.0000000  12.0000000  12.0000000   1.0078250
 NucSpn=           0           0           0           0           0           0           0           0           0           1
 AtZEff=  -0.0000000  -0.0000000  -0.0000000  -0.0000000  -0.0000000  -0.0000000  -0.0000000  -0.0000000  -0.0000000  -0.0000000
 NQMom=    0.0000000   0.0000000   0.0000000   0.0000000   0.0000000   0.0000000   0.0000000   0.0000000   0.0000000   0.0000000
 NMagM=    0.0000000   0.0000000   0.0000000   0.0000000   0.0000000   0.0000000   0.0000000   0.0000000   0.0000000   2.7928460
 AtZNuc=   6.0000000   6.0000000   6.0000000   6.0000000   6.0000000   6.0000000   6.0000000   6.0000000   6.0000000   1.0000000

  Atom        11          12          13          14          15          16          17          18          19          20
 IAtWgt=           1           1           1           1          16          16          16          16          12          12
 AtmWgt=   1.0078250   1.0078250   1.0078250   1.0078250  15.9949146  15.9949146  15.9949146  15.9949146  12.0000000  12.0000000
 NucSpn=           1           1           1           1           0           0           0           0           0           0
 AtZEff=  -0.0000000  -0.0000000  -0.0000000  -0.0000000  -0.0000000  -0.0000000  -0.0000000  -0.0000000  -0.0000000  -0.0000000
 NQMom=    0.0000000   0.0000000   0.0000000   0.0000000   0.0000000   0.0000000   0.0000000   0.0000000   0.0000000   0.0000000
 NMagM=    2.7928460   2.7928460   2.7928460   2.7928460   0.0000000   0.0000000   0.0000000   0.0000000   0.0000000   0.0000000
 AtZNuc=   1.0000000   1.0000000   1.0000000   1.0000000   8.0000000   8.0000000   8.0000000   8.0000000   6.0000000   6.0000000

  Atom        21          22          23          24          25          26          27          28          29          30
 IAtWgt=           1           1           1           1           1           1          16          16          16          32
 AtmWgt=   1.0078250   1.0078250   1.0078250   1.0078250   1.0078250   1.0078250  15.9949146  15.9949146  15.9949146  31.9720718
 NucSpn=           1           1           1           1           1           1           0           0           0           0
 AtZEff=  -0.0000000  -0.0000000  -0.0000000  -0.0000000  -0.0000000  -0.0000000  -0.0000000  -0.0000000  -0.0000000  -0.0000000
 NQMom=    0.0000000   0.0000000   0.0000000   0.0000000   0.0000000   0.0000000   0.0000000   0.0000000   0.0000000   0.0000000
 NMagM=    2.7928460   2.7928460   2.7928460   2.7928460   2.7928460   2.7928460   0.0000000   0.0000000   0.0000000   0.0000000
 AtZNuc=   1.0000000   1.0000000   1.0000000   1.0000000   1.0000000   1.0000000   8.0000000   8.0000000   8.0000000  16.0000000

  Atom        31          32          33          34          35          36          37          38          39          40
 IAtWgt=          32          32          16          16          16          16          16          16          12          12
 AtmWgt=  31.9720718  31.9720718  15.9949146  15.9949146  15.9949146  15.9949146  15.9949146  15.9949146  12.0000000  12.0000000
 NucSpn=           0           0           0           0           0           0           0           0           0           0
 AtZEff=  -0.0000000  -0.0000000  -0.0000000  -0.0000000  -0.0000000  -0.0000000  -0.0000000  -0.0000000  -0.0000000  -0.0000000
 NQMom=    0.0000000   0.0000000   0.0000000   0.0000000   0.0000000   0.0000000   0.0000000   0.0000000   0.0000000   0.0000000
 NMagM=    0.0000000   0.0000000   0.0000000   0.0000000   0.0000000   0.0000000   0.0000000   0.0000000   0.0000000   0.0000000
 AtZNuc=  16.0000000  16.0000000   8.0000000   8.0000000   8.0000000   8.0000000   8.0000000   8.0000000   6.0000000   6.0000000

  Atom        41          42          43          44          45          46          47          48          49          50
 IAtWgt=          12          19          19          19          19          19          19          19          19          19
 AtmWgt=  12.0000000  18.9984032  18.9984032  18.9984032  18.9984032  18.9984032  18.9984032  18.9984032  18.9984032  18.9984032
 NucSpn=           0           1           1           1           1           1           1           1           1           1
 AtZEff=  -0.0000000  -0.0000000  -0.0000000  -0.0000000  -0.0000000  -0.0000000  -0.0000000  -0.0000000  -0.0000000  -0.0000000
 NQMom=    0.0000000   0.0000000   0.0000000   0.0000000   0.0000000   0.0000000   0.0000000   0.0000000   0.0000000   0.0000000
 NMagM=    0.0000000   2.6288670   2.6288670   2.6288670   2.6288670   2.6288670   2.6288670   2.6288670   2.6288670   2.6288670
 AtZNuc=   6.0000000   9.0000000   9.0000000   9.0000000   9.0000000   9.0000000   9.0000000   9.0000000   9.0000000   9.0000000

  Atom        51          52          53          54          55          56          57          58          59          60
 IAtWgt=          12           1          12          12          12          12          12          12           1           1
 AtmWgt=  12.0000000   1.0078250  12.0000000  12.0000000  12.0000000  12.0000000  12.0000000  12.0000000   1.0078250   1.0078250
 NucSpn=           0           1           0           0           0           0           0           0           1           1
 AtZEff=  -0.0000000  -0.0000000  -0.0000000  -0.0000000  -0.0000000  -0.0000000  -0.0000000  -0.0000000  -0.0000000  -0.0000000
 NQMom=    0.0000000   0.0000000   0.0000000   0.0000000   0.0000000   0.0000000   0.0000000   0.0000000   0.0000000   0.0000000
 NMagM=    0.0000000   2.7928460   0.0000000   0.0000000   0.0000000   0.0000000   0.0000000   0.0000000   2.7928460   2.7928460
 AtZNuc=   6.0000000   1.0000000   6.0000000   6.0000000   6.0000000   6.0000000   6.0000000   6.0000000   1.0000000   1.0000000

  Atom        61          62          63          64          65          66          67          68          69
 IAtWgt=           1          14          14          14          14          12           1         174          16
 AtmWgt=   1.0078250  14.0030740  14.0030740  14.0030740  14.0030740  12.0000000   1.0078250 173.9390000  15.9949146
 NucSpn=           1           2           2           2           2           0           1           0           0
 AtZEff=  -0.0000000  -0.0000000  -0.0000000  -0.0000000  -0.0000000  -0.0000000  -0.0000000  -0.0000000  -0.0000000
 NQMom=    0.0000000   2.0440000   2.0440000   2.0440000   2.0440000   0.0000000   0.0000000   0.0000000   0.0000000
 NMagM=    2.7928460   0.4037610   0.4037610   0.4037610   0.4037610   0.0000000   2.7928460   0.0000000   0.0000000
 AtZNuc=   1.0000000   7.0000000   7.0000000   7.0000000   7.0000000   6.0000000   1.0000000  70.0000000   8.0000000
 Leave Link  101 at Sat Feb  8 14:08:03 2025, MaxMem= 82678120448 cpu:               7.2 elap:               0.3
 (Enter /sysapps/ubuntu-applications/gaussian-new/avx/g16/l103.exe)

 GradGradGradGradGradGradGradGradGradGradGradGradGradGradGradGradGradGrad
 Berny optimization.
 Initialization pass.
 Trust Radius=3.00D-01 FncErr=1.00D-07 GrdErr=1.00D-07 EigMax=2.50D+02 EigMin=1.00D-04
 Number of steps in this run=      2 maximum allowed number of steps=      2.
 GradGradGradGradGradGradGradGradGradGradGradGradGradGradGradGradGradGrad

 Leave Link  103 at Sat Feb  8 14:08:03 2025, MaxMem= 82678120448 cpu:               1.2 elap:               0.1
 (Enter /sysapps/ubuntu-applications/gaussian-new/avx/g16/l202.exe)
 Stoichiometry    C22H16F9N4O14S3Yb(2)
 Framework group  C1[X(C22H16F9N4O14S3Yb)]
 Deg. of freedom   201
 Full point group                 C1      NOp   1
 Largest Abelian subgroup         C1      NOp   1
 Largest concise Abelian subgroup C1      NOp   1
                         Standard orientation:                         
 ---------------------------------------------------------------------
 Center     Atomic      Atomic             Coordinates (Angstroms)
 Number     Number       Type             X           Y           Z
 ---------------------------------------------------------------------
      1          6           0       -4.823225    1.197024    0.811144
      2          6           0       -5.636473    1.933752   -0.058783
      3          6           0       -6.443184    2.954554    0.443569
      4          6           0       -6.430390    3.245109    1.810179
      5          6           0       -5.611535    2.515316    2.675736
      6          6           0       -4.807931    1.487599    2.181081
      7          6           0       -1.881949   -1.016034    0.556389
      8          6           0       -1.372248   -0.536868   -0.823101
      9          6           0       -0.744646   -0.950914    1.598410
     10          1           0       -5.631550    1.708769   -1.128927
     11          1           0       -7.075362    3.530372   -0.235262
     12          1           0       -7.057188    4.049213    2.201940
     13          1           0       -5.595401    2.748105    3.742351
     14          1           0       -4.162454    0.918999    2.853820
     15          8           0       -0.060592    0.040282    1.734533
     16          8           0       -0.681173    0.448261   -0.960048
     17          8           0       -1.842993   -1.254455   -1.809757
     18          8           0       -0.666483   -2.027359    2.327895
     19          6           0       -1.476034   -0.868826   -3.148771
     20          6           0        0.408442   -2.081685    3.284613
     21          1           0       -1.830600   -1.671287   -3.803018
     22          1           0       -0.386903   -0.762762   -3.219004
     23          1           0       -1.964575    0.082458   -3.397651
     24          1           0        0.364731   -3.078160    3.733744
     25          1           0        0.261447   -1.306216    4.047640
     26          1           0        1.360952   -1.920488    2.760909
     27          8           0        3.032600   -0.874670    1.371108
     28          8           0        1.972654   -0.873554   -1.968036
     29          8           0        0.654576    2.965658    0.408811
     30         16           0        1.255826    3.607940   -0.783504
     31         16           0        3.828614    0.201624    2.016551
     32         16           0        1.470249   -2.158885   -1.429739
     33          8           0        1.932325    2.572230   -1.608247
     34          8           0        1.975309    4.846928   -0.574357
     35          8           0        3.177588    1.508861    1.752548
     36          8           0        4.311124   -0.047443    3.356271
     37          8           0        0.785033   -1.920747   -0.130307
     38          8           0        0.753022   -3.022002   -2.351545
     39          6           0        3.007072   -3.105095   -0.968919
     40          6           0        5.307788    0.280519    0.931244
     41          6           0       -0.188746    4.097691   -1.807476
     42          9           0        2.823362   -3.714001    0.188200
     43          9           0        4.045174   -2.295223   -0.888973
     44          9           0        3.241290   -4.011926   -1.903466
     45          9           0        4.900496    0.558069   -0.306418
     46          9           0        5.943326   -0.878651    0.925615
     47          9           0        6.134216    1.230104    1.334024
     48          9           0       -0.892732    3.037709   -2.173035
     49          9           0        0.233012    4.727312   -2.894265
     50          9           0       -0.968403    4.912571   -1.112151
     51          6           0       -3.985591    0.079109    0.257845
     52          1           0       -3.752228    0.271955   -0.804659
     53          6           0       -4.749058   -1.311262    0.273271
     54          6           0       -5.929755   -1.249878   -0.599052
     55          6           0       -5.148571   -1.636596    1.657759
     56          6           0       -1.681018   -3.520795   -0.046379
     57          6           0       -3.322744   -3.941442   -1.733826
     58          6           0       -2.078955   -4.249356   -1.129427
     59          1           0       -0.734699   -3.706224    0.461919
     60          1           0       -3.680524   -4.467863   -2.620709
     61          1           0       -1.458940   -5.048690   -1.534863
     62          7           0       -6.872549   -1.118395   -1.254573
     63          7           0       -5.434107   -1.879940    2.751563
     64          7           0       -3.804307   -2.335399   -0.214123
     65          7           0       -4.148186   -3.014345   -1.258549
     66          6           0       -2.536179   -2.440666    0.500155
     67          1           0       -2.759210   -2.671964    1.562768
     68         70           0        1.607794    0.683756   -0.011909
     69          8           0       -2.829513   -0.098820    1.034843
 ---------------------------------------------------------------------
 Rotational constants (GHZ):           0.0673492           0.0392310           0.0316393
 Leave Link  202 at Sat Feb  8 14:08:03 2025, MaxMem= 82678120448 cpu:               0.9 elap:               0.0
 (Enter /sysapps/ubuntu-applications/gaussian-new/avx/g16/l301.exe)
 General basis read from cards:  (5D, 7F)
 Centers:      10     11     12     13     14     21     22     23     24     25
 Centers:      26     52     59     60     61     67
 S 3 1.00
     Exponent=  1.3010701000D+01 Coefficients=  1.9682158000D-02
     Exponent=  1.9622572000D+00 Coefficients=  1.3796524000D-01
     Exponent=  4.4453796000D-01 Coefficients=  4.7831935000D-01
 S 1 1.00
     Exponent=  1.2194962000D-01 Coefficients=  1.0000000000D+00
 P 1 1.00
     Exponent=  8.0000000000D-01 Coefficients=  1.0000000000D+00
 ****
 Centers:       1      2      3      4      5      6      7      8      9     19
 Centers:      20     39     40     41     51     53     54     55     56     57
 Centers:      58     66
 S 5 1.00
     Exponent=  1.2384016938D+03 Coefficients=  5.4568832082D-03
     Exponent=  1.8629004992D+02 Coefficients=  4.0638409211D-02
     Exponent=  4.2251176346D+01 Coefficients=  1.8025593888D-01
     Exponent=  1.1676557932D+01 Coefficients=  4.6315121755D-01
     Exponent=  3.5930506482D+00 Coefficients=  4.4087173314D-01
 S 1 1.00
     Exponent=  4.0245147363D-01 Coefficients=  1.0000000000D+00
 S 1 1.00
     Exponent=  1.3090182668D-01 Coefficients=  1.0000000000D+00
 P 3 1.00
     Exponent=  9.4680970621D+00 Coefficients=  3.8387871728D-02
     Exponent=  2.0103545142D+00 Coefficients=  2.1117025112D-01
     Exponent=  5.4771004707D-01 Coefficients=  5.1328172114D-01
 P 1 1.00
     Exponent=  1.5268613795D-01 Coefficients=  1.0000000000D+00
 D 1 1.00
     Exponent=  8.0000000000D-01 Coefficients=  1.0000000000D+00
 ****
 Centers:      62     63     64     65
 S 5 1.00
     Exponent=  1.7128415853D+03 Coefficients= -5.3934125305D-03
     Exponent=  2.5764812677D+02 Coefficients= -4.0221581118D-02
     Exponent=  5.8458245853D+01 Coefficients= -1.7931144990D-01
     Exponent=  1.6198367905D+01 Coefficients= -4.6376317823D-01
     Exponent=  5.0052600809D+00 Coefficients= -4.4171422662D-01
 S 1 1.00
     Exponent=  5.8731856571D-01 Coefficients=  1.0000000000D+00
 S 1 1.00
     Exponent=  1.8764592253D-01 Coefficients=  1.0000000000D+00
 P 3 1.00
     Exponent=  1.3571470233D+01 Coefficients= -4.0072398852D-02
     Exponent=  2.9257372874D+00 Coefficients= -2.1807045028D-01
     Exponent=  7.9927750754D-01 Coefficients= -5.1294466049D-01
 P 1 1.00
     Exponent=  2.1954348034D-01 Coefficients=  1.0000000000D+00
 D 1 1.00
     Exponent=  1.0000000000D+00 Coefficients=  1.0000000000D+00
 ****
 Centers:      15     16     17     18     27     28     29     33     34     35
 Centers:      36     37     38     69
 S 5 1.00
     Exponent=  2.2661767785D+03 Coefficients= -5.3431809926D-03
     Exponent=  3.4087010191D+02 Coefficients= -3.9890039230D-02
     Exponent=  7.7363135167D+01 Coefficients= -1.7853911985D-01
     Exponent=  2.1479644940D+01 Coefficients= -4.6427684959D-01
     Exponent=  6.6589433124D+00 Coefficients= -4.4309745172D-01
 S 1 1.00
     Exponent=  8.0975975668D-01 Coefficients=  1.0000000000D+00
 S 1 1.00
     Exponent=  2.5530772234D-01 Coefficients=  1.0000000000D+00
 P 3 1.00
     Exponent=  1.7721504317D+01 Coefficients=  4.3394573193D-02
     Exponent=  3.8635505440D+00 Coefficients=  2.3094120765D-01
     Exponent=  1.0480920883D+00 Coefficients=  5.1375311064D-01
 P 1 1.00
     Exponent=  2.7641544411D-01 Coefficients=  1.0000000000D+00
 D 1 1.00
     Exponent=  1.2000000000D+00 Coefficients=  1.0000000000D+00
 ****
 Centers:      42     43     44     45     46     47     48     49     50
 S 5 1.00
     Exponent=  2.8948325990D+03 Coefficients= -5.3408255515D-03
     Exponent=  4.3541939120D+02 Coefficients= -3.9904258866D-02
     Exponent=  9.8843328866D+01 Coefficients= -1.7912768038D-01
     Exponent=  2.7485198001D+01 Coefficients= -4.6758090825D-01
     Exponent=  8.5405498171D+00 Coefficients= -4.4653131020D-01
 S 1 1.00
     Exponent=  1.0654578038D+00 Coefficients=  1.0000000000D+00
 S 1 1.00
     Exponent=  3.3247346748D-01 Coefficients=  1.0000000000D+00
 P 3 1.00
     Exponent=  2.2696633924D+01 Coefficients= -4.5212874436D-02
     Exponent=  4.9872339257D+00 Coefficients= -2.3754317067D-01
     Exponent=  1.3491613954D+00 Coefficients= -5.1287353587D-01
 P 1 1.00
     Exponent=  3.4829881977D-01 Coefficients=  1.0000000000D+00
 D 1 1.00
     Exponent=  1.4000000000D+00 Coefficients=  1.0000000000D+00
 ****
 Centers:      30     31     32
 S 5 1.00
     Exponent=  9.1849303010D+03 Coefficients= -2.2294387756D-03
     Exponent=  1.3815105503D+03 Coefficients= -1.6683029937D-02
     Exponent=  3.1387147580D+02 Coefficients= -7.5262436116D-02
     Exponent=  8.8053870623D+01 Coefficients= -1.9376827038D-01
     Exponent=  2.7039914905D+01 Coefficients= -1.7718020803D-01
 S 3 1.00
     Exponent=  4.5648731303D+01 Coefficients= -1.0736062573D-01
     Exponent=  4.9664522326D+00 Coefficients=  6.5066293018D-01
     Exponent=  2.0116242047D+00 Coefficients=  5.9712155354D-01
 S 1 1.00
     Exponent=  3.5661077013D-01 Coefficients=  1.0000000000D+00
 S 1 1.00
     Exponent=  1.3507221477D-01 Coefficients=  1.0000000000D+00
 P 5 1.00
     Exponent=  2.6198233439D+02 Coefficients= -9.2729929822D-03
     Exponent=  6.1306894736D+01 Coefficients= -6.6547669241D-02
     Exponent=  1.9103729887D+01 Coefficients= -2.4828595903D-01
     Exponent=  6.6567720378D+00 Coefficients= -4.8703847402D-01
     Exponent=  2.3959635161D+00 Coefficients= -3.9337850312D-01
 P 1 1.00
     Exponent=  6.1776161679D-01 Coefficients=  1.0000000000D+00
 P 1 1.00
     Exponent=  1.6993376871D-01 Coefficients=  1.0000000000D+00
 D 1 1.00
     Exponent=  5.5000000000D-01 Coefficients=  1.0000000000D+00
 ****
 Centers:      68
 S 5 1.00
     Exponent=  9.1972903000D+04 Coefficients=  5.1000000000D-05
     Exponent=  1.3787371000D+04 Coefficients=  3.8600000000D-04
     Exponent=  3.1236135000D+03 Coefficients=  1.8440000000D-03
     Exponent=  8.7147540000D+02 Coefficients=  5.3560000000D-03
     Exponent=  2.5046300000D+02 Coefficients=  8.8590000000D-03
 S 1 1.00
     Exponent=  5.8282700000D+01 Coefficients=  1.0000000000D+00
 S 1 1.00
     Exponent=  4.1630500000D+01 Coefficients=  1.0000000000D+00
 S 1 1.00
     Exponent=  2.0216400000D+01 Coefficients=  1.0000000000D+00
 S 1 1.00
     Exponent=  4.9972000000D+00 Coefficients=  1.0000000000D+00
 S 1 1.00
     Exponent=  2.4822000000D+00 Coefficients=  1.0000000000D+00
 S 1 1.00
     Exponent=  9.1790000000D-01 Coefficients=  1.0000000000D+00
 S 1 1.00
     Exponent=  3.8530000000D-01 Coefficients=  1.0000000000D+00
 S 1 1.00
     Exponent=  6.1400000000D-02 Coefficients=  1.0000000000D+00
 S 1 1.00
     Exponent=  2.5000000000D-02 Coefficients=  1.0000000000D+00
 P 3 1.00
     Exponent=  1.2274108000D+01 Coefficients= -1.5252141000D-01
     Exponent=  1.0695631000D+01 Coefficients= -2.0243492000D-01
     Exponent=  2.0359782000D+00 Coefficients= -1.9621046000D-01
 P 6 1.00
     Exponent=  1.4975567000D+03 Coefficients= -1.0182934000D-03
     Exponent=  3.7504101000D+02 Coefficients= -6.0919401000D-03
     Exponent=  1.2869727000D+02 Coefficients= -1.7077693000D-02
     Exponent=  4.5270759000D+01 Coefficients= -3.5655508000D-02
     Exponent=  1.4906971000D+01 Coefficients=  2.3732226000D-01
     Exponent=  5.6450858000D+00 Coefficients= -3.0559689000D-01
 P 1 1.00
     Exponent=  3.6752106000D+00 Coefficients=  1.0000000000D+00
 P 1 1.00
     Exponent=  1.3296961000D+00 Coefficients=  1.0000000000D+00
 P 1 1.00
     Exponent=  5.5338966000D-01 Coefficients=  1.0000000000D+00
 P 1 1.00
     Exponent=  2.2382350000D-01 Coefficients=  1.0000000000D+00
 P 1 1.00
     Exponent=  6.8350467650D-02 Coefficients=  1.0000000000D+00
 P 1 1.00
     Exponent=  2.5355670803D-02 Coefficients=  1.0000000000D+00
 D 6 1.00
     Exponent=  4.6976060000D+02 Coefficients=  1.9840000000D-03
     Exponent=  1.4261280000D+02 Coefficients=  1.6013000000D-02
     Exponent=  5.5126700000D+01 Coefficients=  6.3153000000D-02
     Exponent=  2.3441500000D+01 Coefficients=  1.3780000000D-01
     Exponent=  9.4951000000D+00 Coefficients=  2.8549800000D-01
     Exponent=  4.5792000000D+00 Coefficients=  4.3830900000D-01
 D 1 1.00
     Exponent=  2.1646000000D+00 Coefficients=  1.0000000000D+00
 D 1 1.00
     Exponent=  9.2380000000D-01 Coefficients=  1.0000000000D+00
 D 1 1.00
     Exponent=  3.1070000000D-01 Coefficients=  1.0000000000D+00
 D 1 1.00
     Exponent=  9.1400000000D-02 Coefficients=  1.0000000000D+00
 F 5 1.00
     Exponent=  1.4202930000D+02 Coefficients=  5.9570000000D-03
     Exponent=  5.1086200000D+01 Coefficients=  5.3180000000D-02
     Exponent=  2.2874100000D+01 Coefficients=  1.7807600000D-01
     Exponent=  1.0502500000D+01 Coefficients=  3.0060000000D-01
     Exponent=  4.7872000000D+00 Coefficients=  3.5034200000D-01
 F 1 1.00
     Exponent=  2.1088000000D+00 Coefficients=  1.0000000000D+00
 F 1 1.00
     Exponent=  8.6090000000D-01 Coefficients=  1.0000000000D+00
 F 1 1.00
     Exponent=  3.0600000000D-01 Coefficients=  1.0000000000D+00
 G 1 1.00
     Exponent=  5.1330000000D-01 Coefficients=  1.0000000000D+00
 ****
 ======================================================================================================
                                       Pseudopotential Parameters
 ======================================================================================================
  Center     Atomic      Valence      Angular      Power
  Number     Number     Electrons     Momentum     of R      Exponent        Coefficient   SO-Coeffient
 ======================================================================================================
    1          6
                                   No pseudopotential on this center.
    2          6
                                   No pseudopotential on this center.
    3          6
                                   No pseudopotential on this center.
    4          6
                                   No pseudopotential on this center.
    5          6
                                   No pseudopotential on this center.
    6          6
                                   No pseudopotential on this center.
    7          6
                                   No pseudopotential on this center.
    8          6
                                   No pseudopotential on this center.
    9          6
                                   No pseudopotential on this center.
   10          1
                                   No pseudopotential on this center.
   11          1
                                   No pseudopotential on this center.
   12          1
                                   No pseudopotential on this center.
   13          1
                                   No pseudopotential on this center.
   14          1
                                   No pseudopotential on this center.
   15          8
                                   No pseudopotential on this center.
   16          8
                                   No pseudopotential on this center.
   17          8
                                   No pseudopotential on this center.
   18          8
                                   No pseudopotential on this center.
   19          6
                                   No pseudopotential on this center.
   20          6
                                   No pseudopotential on this center.
   21          1
                                   No pseudopotential on this center.
   22          1
                                   No pseudopotential on this center.
   23          1
                                   No pseudopotential on this center.
   24          1
                                   No pseudopotential on this center.
   25          1
                                   No pseudopotential on this center.
   26          1
                                   No pseudopotential on this center.
   27          8
                                   No pseudopotential on this center.
   28          8
                                   No pseudopotential on this center.
   29          8
                                   No pseudopotential on this center.
   30         16
                                   No pseudopotential on this center.
   31         16
                                   No pseudopotential on this center.
   32         16
                                   No pseudopotential on this center.
   33          8
                                   No pseudopotential on this center.
   34          8
                                   No pseudopotential on this center.
   35          8
                                   No pseudopotential on this center.
   36          8
                                   No pseudopotential on this center.
   37          8
                                   No pseudopotential on this center.
   38          8
                                   No pseudopotential on this center.
   39          6
                                   No pseudopotential on this center.
   40          6
                                   No pseudopotential on this center.
   41          6
                                   No pseudopotential on this center.
   42          9
                                   No pseudopotential on this center.
   43          9
                                   No pseudopotential on this center.
   44          9
                                   No pseudopotential on this center.
   45          9
                                   No pseudopotential on this center.
   46          9
                                   No pseudopotential on this center.
   47          9
                                   No pseudopotential on this center.
   48          9
                                   No pseudopotential on this center.
   49          9
                                   No pseudopotential on this center.
   50          9
                                   No pseudopotential on this center.
   51          6
                                   No pseudopotential on this center.
   52          1
                                   No pseudopotential on this center.
   53          6
                                   No pseudopotential on this center.
   54          6
                                   No pseudopotential on this center.
   55          6
                                   No pseudopotential on this center.
   56          6
                                   No pseudopotential on this center.
   57          6
                                   No pseudopotential on this center.
   58          6
                                   No pseudopotential on this center.
   59          1
                                   No pseudopotential on this center.
   60          1
                                   No pseudopotential on this center.
   61          1
                                   No pseudopotential on this center.
   62          7
                                   No pseudopotential on this center.
   63          7
                                   No pseudopotential on this center.
   64          7
                                   No pseudopotential on this center.
   65          7
                                   No pseudopotential on this center.
   66          6
                                   No pseudopotential on this center.
   67          1
                                   No pseudopotential on this center.
   68         70           42
                                      H and up 
                                                     2        1.0000000        0.00000000    0.00000000
                                      S - H
                                                     2       32.4244840      891.01377700    0.00000000
                                      P - H
                                                     2       18.6562320      264.03695300    0.00000000
                                      D - H
                                                     2       10.4902220       73.92391900    0.00000000
                                      F - H
                                                     2       20.7741830      -39.59217300    0.00000000
                                      G - H
                                                     2       28.4310280      -34.63863800    0.00000000
   69          8
                                   No pseudopotential on this center.
 ======================================================================================================
 Ernie: Thresh=  0.10000D-02 Tol=  0.10000D-05 Strict=F.
 There are   991 symmetry adapted cartesian basis functions of A   symmetry.
 There are   916 symmetry adapted basis functions of A   symmetry.
   916 basis functions,  1662 primitive gaussians,   991 cartesian basis functions
   230 alpha electrons      229 beta electrons
       nuclear repulsion energy     11628.6175976336 Hartrees.
 IExCor= 7252 DFT=T Ex+Corr=MN15 ExCW=0 ScaHFX=  0.440000
 ScaDFX=  1.000000  1.000000  1.000000  1.000000 ScalE2=  1.000000  1.000000
 IRadAn=      5 IRanWt=     -1 IRanGd=            0 ICorTp=0 IEmpDi=  4
 NAtoms=   69 NActive=   69 NUniq=   69 SFac= 1.00D+00 NAtFMM=   60 NAOKFM=T Big=T
 Integral buffers will be    131072 words long.
 Raffenetti 2 integral format.
 Two-electron integral symmetry is turned on.
 Force inversion solution in PCM.
 ------------------------------------------------------------------------------
 Polarizable Continuum Model (PCM)
 =================================
 Model                : PCM.
 Atomic radii         : SMD-Coulomb.
 Polarization charges : Total charges.
 Charge compensation  : None.
 Solution method      : Matrix inversion.
 Cavity type          : VdW (van der Waals Surface) (Alpha=1.000).
 Cavity algorithm     : GePol (No added spheres)
                        Default sphere list used, NSphG=   69.
                        Lebedev-Laikov grids with approx.  5.0 points / Ang**2.
                        Smoothing algorithm: York/Karplus (Gamma=1.0000).
                        Polarization charges: spherical gaussians, with
                                              point-specific exponents (IZeta= 3).
                        Self-potential: point-specific (ISelfS= 7).
                        Self-field    : sphere-specific E.n sum rule (ISelfD= 2).
 1st derivatives      : Analytical E(r).r(x)/FMM algorithm (CHGder, D1EAlg=3).
                        Cavity 1st derivative terms included.
 2nd derivatives      : Analytical E(r).r(xy)/FMM algorithm (CHGder, D2EAlg=3).
                        Cavity 2nd derivative terms included.
 Solvent              : DiChloroEthane, Eps=  10.125000 Eps(inf)=   2.087447
 ------------------------------------------------------------------------------
 GePol: Number of generator spheres                  =      69
 GePol: Total number of spheres                      =      69
 GePol: Number of exposed spheres                    =      68 ( 98.55%)
 GePol: Number of points                             =    4845
 GePol: Average weight of points                     =       0.13
 GePol: Minimum weight of points                     =   0.82D-10
 GePol: Maximum weight of points                     =    0.21501
 GePol: Number of points with low weight             =     291
 GePol: Fraction of low-weight points (<1% of avg)   =       6.01%
 GePol: Cavity surface area                          =    640.526 Ang**2
 GePol: Cavity volume                                =    775.665 Ang**3
 ------------------------------------------------------------------------------
 Atomic radii for non-electrostatic terms: SMD-CDS.
 ------------------------------------------------------------------------------
 PCM non-electrostatic energy =         0.0065452787 Hartrees.
 Nuclear repulsion after PCM non-electrostatic terms =    11628.6241429124 Hartrees.
 Leave Link  301 at Sat Feb  8 14:08:04 2025, MaxMem= 82678120448 cpu:               6.4 elap:               0.3
 (Enter /sysapps/ubuntu-applications/gaussian-new/avx/g16/l302.exe)
 NPDir=0 NMtPBC=     1 NCelOv=     1 NCel=       1 NClECP=     1 NCelD=      1
         NCelK=      1 NCelE2=     1 NClLst=     1 CellRange=     0.0.
 One-electron integrals computed using PRISM.
 One-electron integral symmetry used in STVInt
   1 Symmetry operations used in ECPInt.
 ECPInt:  NShTT=   77815 NPrTT=  297642 LenC2=   60103 LenP2D=  139235.
 LDataN:  DoStor=T MaxTD1= 9 Len=  602
 NBasis=   916 RedAO= T EigKep=  2.38D-04  NBF=   916
 NBsUse=   916 1.00D-06 EigRej= -1.00D+00 NBFU=   916
 Precomputing XC quadrature grid using
 IXCGrd= 4 IRadAn=           5 IRanWt=          -1 IRanGd=           0 AccXCQ= 0.00D+00.
 Defaulting to unpruned grid for atomic number  70.
 Generated NRdTot=       0 NPtTot=           0 NUsed=           0 NTot=          32
 NSgBfM=   943   936   942   943   943 MxSgAt=    69 MxSgA2=    69.
 Leave Link  302 at Sat Feb  8 14:08:07 2025, MaxMem= 82678120448 cpu:              72.4 elap:               3.1
 (Enter /sysapps/ubuntu-applications/gaussian-new/avx/g16/l303.exe)
 DipDrv:  MaxL=1.
 Leave Link  303 at Sat Feb  8 14:08:07 2025, MaxMem= 82678120448 cpu:               7.0 elap:               0.3
 (Enter /sysapps/ubuntu-applications/gaussian-new/avx/g16/l401.exe)
 ExpMin= 2.50D-02 ExpMax= 9.20D+04 ExpMxC= 1.38D+04 IAcc=3 IRadAn=         5 AccDes= 0.00D+00
 Harris functional with IExCor= 1009 and IRadAn=       5 diagonalized for initial guess.
 HarFok:  IExCor= 1009 AccDes= 0.00D+00 IRadAn=         5 IDoV= 1 UseB2=F ITyADJ=14
 ICtDFT=  3500011 ScaDFX=  1.000000  1.000000  1.000000  1.000000
 Defaulting to unpruned grid for atomic number  70.
 FoFCou: FMM=F IPFlag=           0 FMFlag=      100000 FMFlg1=        2001
         NFxFlg=           0 DoJE=T BraDBF=F KetDBF=T FulRan=T
         wScrn=  0.000000 ICntrl=       500 IOpCl=  0 I1Cent=   200000004 NGrid=           0
         NMat0=    1 NMatS0=      1 NMatT0=    0 NMatD0=    1 NMtDS0=    0 NMtDT0=    0
 Petite list used in FoFCou.
 Harris En= -5369.63611375842    
 JPrj=0 DoOrth=F DoCkMO=F.
 Initial guess <Sx>= 0.0000 <Sy>= 0.0000 <Sz>= 0.5000 <S**2>= 0.7500 S= 0.5000
 Leave Link  401 at Sat Feb  8 14:08:14 2025, MaxMem= 82678120448 cpu:             176.9 elap:               7.4
 (Enter /sysapps/ubuntu-applications/gaussian-new/avx/g16/l502.exe)
 Integral symmetry usage will be decided dynamically.
 UHF open shell SCF:
 Using DIIS extrapolation, IDIIS=  1040.
 NGot= 82678120448 LenX= 82676122245 LenY= 82675139173
 Requested convergence on RMS density matrix=1.00D-08 within 500 cycles.
 Requested convergence on MAX density matrix=1.00D-06.
 Requested convergence on             energy=1.00D-06.
 No special actions if energy rises.
 Fock matrices will be formed incrementally for  20 cycles.

 Cycle   1  Pass 1  IDiag  1:
 FoFJK:  IHMeth= 1 ICntrl=       0 DoSepK=F KAlg= 0 I1Cent=           0 FoldK=F
 IRaf= 850000000 NMat=       1 IRICut=       1 DoRegI=T DoRafI=F ISym2E= 0 IDoP0=0 IntGTp=1.
 FoFCou: FMM=T IPFlag=           0 FMFlag=      100000 FMFlg1=        2001
         NFxFlg=           0 DoJE=F BraDBF=F KetDBF=F FulRan=T
         wScrn=  0.000000 ICntrl=         0 IOpCl=  1 I1Cent=           0 NGrid=           0
         NMat0=    1 NMatS0=      1 NMatT0=    0 NMatD0=    1 NMtDS0=    0 NMtDT0=    0
 Symmetry not used in FoFCou.
 FMM levels:  10  Number of levels for PrismC:   9
 Defaulting to unpruned grid for atomic number  70.
 Defaulting to unpruned grid for atomic number  70.
 Defaulting to unpruned grid for atomic number  70.
 Defaulting to unpruned grid for atomic number  70.
 Defaulting to unpruned grid for atomic number  70.
 Defaulting to unpruned grid for atomic number  70.
 Defaulting to unpruned grid for atomic number  70.
 Defaulting to unpruned grid for atomic number  70.
 Defaulting to unpruned grid for atomic number  70.
 Defaulting to unpruned grid for atomic number  70.
 Defaulting to unpruned grid for atomic number  70.
 Defaulting to unpruned grid for atomic number  70.
 Defaulting to unpruned grid for atomic number  70.
 Defaulting to unpruned grid for atomic number  70.
 Defaulting to unpruned grid for atomic number  70.
 Defaulting to unpruned grid for atomic number  70.
 Defaulting to unpruned grid for atomic number  70.
 Defaulting to unpruned grid for atomic number  70.
 Defaulting to unpruned grid for atomic number  70.
 Defaulting to unpruned grid for atomic number  70.
 Defaulting to unpruned grid for atomic number  70.
 Defaulting to unpruned grid for atomic number  70.
 Defaulting to unpruned grid for atomic number  70.
 Defaulting to unpruned grid for atomic number  70.
 Inv3:  Mode=1 IEnd=    70422075.
 Iteration    1 A*A^-1 deviation from unit magnitude is 8.88D-15 for   4842.
 Iteration    1 A*A^-1 deviation from orthogonality  is 5.66D-15 for   4820   3819.
 Iteration    1 A^-1*A deviation from unit magnitude is 8.88D-15 for   4842.
 Iteration    1 A^-1*A deviation from orthogonality  is 2.98D-15 for   4840   4825.
 E= -5363.85014355980    
 DIIS: error= 2.20D-01 at cycle   1 NSaved=   1.
 NSaved= 1 IEnMin= 1 EnMin= -5363.85014355980     IErMin= 1 ErrMin= 2.20D-01
 ErrMax= 2.20D-01  0.00D+00 EMaxC= 1.00D-01 BMatC= 1.38D+02 BMatP= 1.38D+02
 IDIUse=3 WtCom= 0.00D+00 WtEn= 1.00D+00
 Coeff-Com:  0.100D+01
 Coeff-En:   0.100D+01
 Coeff:      0.100D+01
 Gap=     0.266 Goal=   None    Shift=    0.000
 Gap=     0.136 Goal=   None    Shift=    0.000
 GapD=    0.136 DampG=1.000 DampE=0.125 DampFc=0.1250 IDamp=-1.
 Damping current iteration by 1.25D-01
 RMSDP=1.81D-02 MaxDP=2.88D+00              OVMax= 9.85D-01

 Cycle   2  Pass 1  IDiag  1:
 RMSU=  2.26D-03    CP:  9.95D-01
 E= -5365.27555175804     Delta-E=       -1.425408198244 Rises=F Damp=T
 DIIS: error= 8.62D-02 at cycle   2 NSaved=   2.
 NSaved= 2 IEnMin= 2 EnMin= -5365.27555175804     IErMin= 2 ErrMin= 8.62D-02
 ErrMax= 8.62D-02  0.00D+00 EMaxC= 1.00D-01 BMatC= 2.72D+01 BMatP= 1.38D+02
 IDIUse=3 WtCom= 1.38D-01 WtEn= 8.62D-01
 Coeff-Com: -0.614D+00 0.161D+01
 Coeff-En:   0.243D+00 0.757D+00
 Coeff:      0.124D+00 0.876D+00
 Gap=    -0.060 Goal=   None    Shift=    0.000
 Gap=     0.124 Goal=   None    Shift=    0.000
 RMSDP=3.52D-03 MaxDP=5.20D-01 DE=-1.43D+00 OVMax= 8.67D-01

 Cycle   3  Pass 1  IDiag  1:
 RMSU=  3.19D-03    CP:  9.74D-01  3.52D-01
 E= -5365.25112595940     Delta-E=        0.024425798641 Rises=F Damp=F
 DIIS: error= 1.38D-01 at cycle   3 NSaved=   3.
 NSaved= 3 IEnMin= 2 EnMin= -5365.27555175804     IErMin= 2 ErrMin= 8.62D-02
 ErrMax= 1.38D-01  0.00D+00 EMaxC= 1.00D-01 BMatC= 6.52D+01 BMatP= 2.72D+01
 IDIUse=2 WtCom= 0.00D+00 WtEn= 1.00D+00
 EnCoef did     4 forward-backward iterations
 Coeff-En:   0.329D+00 0.147D+00 0.524D+00
 Coeff:      0.329D+00 0.147D+00 0.524D+00
 Gap=     0.601 Goal=   None    Shift=    0.000
 Gap=     0.600 Goal=   None    Shift=    0.000
 RMSDP=6.83D-03 MaxDP=7.82D-01 DE= 2.44D-02 OVMax= 9.99D-01

 Cycle   4  Pass 1  IDiag  1:
 RMSU=  5.52D-03    CP:  9.65D-01  1.81D+00  2.72D-01
 E= -5252.07590325061     Delta-E=      113.175222708793 Rises=F Damp=F
 DIIS: error= 5.75D-01 at cycle   4 NSaved=   4.
 NSaved= 4 IEnMin= 2 EnMin= -5365.27555175804     IErMin= 2 ErrMin= 8.62D-02
 ErrMax= 5.75D-01  0.00D+00 EMaxC= 1.00D-01 BMatC= 7.04D+02 BMatP= 2.72D+01
 IDIUse=2 WtCom= 0.00D+00 WtEn= 1.00D+00
 EnCoef did   100 forward-backward iterations
 Coeff-En:   0.458D+00 0.139D-01 0.491D+00 0.379D-01
 Coeff:      0.458D+00 0.139D-01 0.491D+00 0.379D-01
 Gap=     0.013 Goal=   None    Shift=    0.000
 Gap=     0.008 Goal=   None    Shift=    0.000
 RMSDP=6.40D-03 MaxDP=7.76D-01 DE= 1.13D+02 OVMax= 9.99D-01

 Cycle   5  Pass 1  IDiag  1:
 RMSU=  1.46D-03    CP:  9.78D-01  2.79D-01  4.55D-01  6.61D-02
 E= -5368.12989574686     Delta-E=     -116.053992496249 Rises=F Damp=F
 DIIS: error= 4.72D-02 at cycle   5 NSaved=   5.
 NSaved= 5 IEnMin= 5 EnMin= -5368.12989574686     IErMin= 5 ErrMin= 4.72D-02
 ErrMax= 4.72D-02  0.00D+00 EMaxC= 1.00D-01 BMatC= 8.08D+00 BMatP= 2.72D+01
 IDIUse=3 WtCom= 5.28D-01 WtEn= 4.72D-01
 Coeff-Com:  0.302D+00-0.414D-01 0.271D+00 0.818D-02 0.460D+00
 Coeff-En:   0.113D+00 0.000D+00 0.000D+00 0.000D+00 0.887D+00
 Coeff:      0.213D+00-0.218D-01 0.143D+00 0.432D-02 0.662D+00
 Gap=     0.785 Goal=   None    Shift=    0.000
 Gap=     0.113 Goal=   None    Shift=    0.000
 RMSDP=1.49D-03 MaxDP=2.55D-01 DE=-1.16D+02 OVMax= 8.71D-01

 Cycle   6  Pass 1  IDiag  1:
 RMSU=  6.40D-04    CP:  9.87D-01  1.96D-01  5.43D-01  8.26D-03  1.41D-01
 E= -5368.09713098942     Delta-E=        0.032764757430 Rises=F Damp=F
 DIIS: error= 6.21D-02 at cycle   6 NSaved=   6.
 NSaved= 6 IEnMin= 5 EnMin= -5368.12989574686     IErMin= 5 ErrMin= 4.72D-02
 ErrMax= 6.21D-02  0.00D+00 EMaxC= 1.00D-01 BMatC= 1.33D+01 BMatP= 8.08D+00
 IDIUse=2 WtCom= 0.00D+00 WtEn= 1.00D+00
 Coeff-En:   0.000D+00 0.000D+00 0.000D+00 0.000D+00 0.508D+00 0.492D+00
 Coeff:      0.000D+00 0.000D+00 0.000D+00 0.000D+00 0.508D+00 0.492D+00
 Gap=     0.226 Goal=   None    Shift=    0.000
 Gap=     0.098 Goal=   None    Shift=    0.000
 RMSDP=5.98D-04 MaxDP=9.10D-02 DE= 3.28D-02 OVMax= 5.17D-02

 Cycle   7  Pass 1  IDiag  1:
 RMSU=  4.16D-04    CP:  9.81D-01  2.10D-01  4.99D-01  2.33D-02  3.49D-01
                    CP:  6.24D-01
 E= -5368.73712763586     Delta-E=       -0.639996646440 Rises=F Damp=F
 DIIS: error= 7.47D-03 at cycle   7 NSaved=   7.
 NSaved= 7 IEnMin= 7 EnMin= -5368.73712763586     IErMin= 7 ErrMin= 7.47D-03
 ErrMax= 7.47D-03  0.00D+00 EMaxC= 1.00D-01 BMatC= 3.29D-01 BMatP= 8.08D+00
 IDIUse=3 WtCom= 9.25D-01 WtEn= 7.47D-02
 Coeff-Com: -0.127D+00 0.193D+00-0.624D-02-0.501D-02 0.181D+00 0.210D+00
 Coeff-Com:  0.553D+00
 Coeff-En:   0.000D+00 0.000D+00 0.000D+00 0.000D+00 0.126D+00 0.000D+00
 Coeff-En:   0.874D+00
 Coeff:     -0.117D+00 0.179D+00-0.578D-02-0.464D-02 0.177D+00 0.194D+00
 Coeff:      0.577D+00
 Gap=     0.204 Goal=   None    Shift=    0.000
 Gap=     0.176 Goal=   None    Shift=    0.000
 RMSDP=1.88D-04 MaxDP=2.17D-02 DE=-6.40D-01 OVMax= 1.37D-02

 Cycle   8  Pass 1  IDiag  1:
 RMSU=  1.70D-04    CP:  9.81D-01  2.19D-01  5.01D-01  2.43D-02  3.87D-01
                    CP:  5.45D-01  1.04D+00
 E= -5368.73155799004     Delta-E=        0.005569645826 Rises=F Damp=F
 DIIS: error= 1.49D-02 at cycle   8 NSaved=   8.
 NSaved= 8 IEnMin= 7 EnMin= -5368.73712763586     IErMin= 7 ErrMin= 7.47D-03
 ErrMax= 1.49D-02  0.00D+00 EMaxC= 1.00D-01 BMatC= 9.28D-01 BMatP= 3.29D-01
 IDIUse=2 WtCom= 0.00D+00 WtEn= 1.00D+00
 EnCoef did    10 forward-backward iterations
 Coeff-En:   0.000D+00 0.000D+00 0.000D+00 0.000D+00 0.143D+00 0.000D+00
 Coeff-En:   0.295D+00 0.563D+00
 Coeff:      0.000D+00 0.000D+00 0.000D+00 0.000D+00 0.143D+00 0.000D+00
 Coeff:      0.295D+00 0.563D+00
 Gap=     0.205 Goal=   None    Shift=    0.000
 Gap=     0.112 Goal=   None    Shift=    0.000
 RMSDP=1.05D-03 MaxDP=2.20D-01 DE= 5.57D-03 OVMax= 1.00D+00

 Cycle   9  Pass 1  IDiag  1:
 RMSU=  3.40D-04    CP:  9.78D-01  2.74D-01  4.95D-01  5.89D-02  9.00D-01
                    CP:  2.78D-01 -2.34D-01 -5.77D-01
 E= -5368.15310227191     Delta-E=        0.578455718129 Rises=F Damp=F
 DIIS: error= 5.05D-02 at cycle   9 NSaved=   9.
 NSaved= 9 IEnMin= 7 EnMin= -5368.73712763586     IErMin= 7 ErrMin= 7.47D-03
 ErrMax= 5.05D-02  0.00D+00 EMaxC= 1.00D-01 BMatC= 9.81D+00 BMatP= 3.29D-01
 IDIUse=2 WtCom= 0.00D+00 WtEn= 1.00D+00
 EnCoef did    14 forward-backward iterations
 Coeff-En:   0.000D+00 0.000D+00 0.000D+00 0.000D+00 0.000D+00 0.000D+00
 Coeff-En:   0.129D+00 0.700D+00 0.171D+00
 Coeff:      0.000D+00 0.000D+00 0.000D+00 0.000D+00 0.000D+00 0.000D+00
 Coeff:      0.129D+00 0.700D+00 0.171D+00
 Gap=     0.168 Goal=   None    Shift=    0.000
 Gap=    -0.024 Goal=   None    Shift=    0.000
 RMSDP=1.01D-03 MaxDP=2.07D-01 DE= 5.78D-01 OVMax= 9.95D-01

 Cycle  10  Pass 1  IDiag  1:
 RMSU=  1.62D-04    CP:  9.79D-01  2.32D-01  4.80D-01  3.08D-02  4.74D-01
                    CP:  5.84D-01  1.26D+00  8.54D-01  1.82D-01
 E= -5368.78374459803     Delta-E=       -0.630642326118 Rises=F Damp=F
 DIIS: error= 4.47D-03 at cycle  10 NSaved=  10.
 NSaved=10 IEnMin=10 EnMin= -5368.78374459803     IErMin=10 ErrMin= 4.47D-03
 ErrMax= 4.47D-03  0.00D+00 EMaxC= 1.00D-01 BMatC= 6.76D-02 BMatP= 3.29D-01
 IDIUse=3 WtCom= 9.55D-01 WtEn= 4.47D-02
 Coeff-Com: -0.585D-03 0.677D-02-0.394D-02 0.136D-03-0.953D-01-0.634D-01
 Coeff-Com: -0.307D+00 0.571D+00 0.106D+00 0.786D+00
 Coeff-En:   0.000D+00 0.000D+00 0.000D+00 0.000D+00 0.000D+00 0.000D+00
 Coeff-En:   0.000D+00 0.000D+00 0.000D+00 0.100D+01
 Coeff:     -0.559D-03 0.647D-02-0.376D-02 0.130D-03-0.910D-01-0.606D-01
 Coeff:     -0.293D+00 0.546D+00 0.101D+00 0.796D+00
 Gap=     0.178 Goal=   None    Shift=    0.000
 Gap=     0.091 Goal=   None    Shift=    0.000
 RMSDP=1.00D-04 MaxDP=1.05D-02 DE=-6.31D-01 OVMax= 1.12D-02

 Cycle  11  Pass 1  IDiag  1:
 RMSU=  5.43D-05    CP:  9.79D-01  2.31D-01  4.81D-01  3.03D-02  4.80D-01
                    CP:  5.57D-01  1.29D+00  1.26D+00  2.77D-01  8.19D-01
 E= -5368.78725352153     Delta-E=       -0.003508923504 Rises=F Damp=F
 DIIS: error= 1.43D-03 at cycle  11 NSaved=  11.
 NSaved=11 IEnMin=11 EnMin= -5368.78725352153     IErMin=11 ErrMin= 1.43D-03
 ErrMax= 1.43D-03  0.00D+00 EMaxC= 1.00D-01 BMatC= 8.83D-03 BMatP= 6.76D-02
 IDIUse=3 WtCom= 9.86D-01 WtEn= 1.43D-02
 Coeff-Com:  0.137D-02-0.864D-03 0.193D-03 0.548D-04-0.244D-01-0.159D-01
 Coeff-Com: -0.150D+00 0.165D+00 0.278D-01 0.384D+00 0.613D+00
 Coeff-En:   0.000D+00 0.000D+00 0.000D+00 0.000D+00 0.000D+00 0.000D+00
 Coeff-En:   0.000D+00 0.000D+00 0.000D+00 0.000D+00 0.100D+01
 Coeff:      0.135D-02-0.851D-03 0.190D-03 0.540D-04-0.241D-01-0.157D-01
 Coeff:     -0.147D+00 0.163D+00 0.274D-01 0.378D+00 0.618D+00
 Gap=     0.170 Goal=   None    Shift=    0.000
 Gap=     0.088 Goal=   None    Shift=    0.000
 RMSDP=3.34D-05 MaxDP=2.80D-03 DE=-3.51D-03 OVMax= 4.21D-03

 Cycle  12  Pass 1  IDiag  1:
 RMSU=  2.25D-05    CP:  9.79D-01  2.34D-01  4.81D-01  3.10D-02  4.87D-01
                    CP:  5.59D-01  1.30D+00  1.28D+00  2.79D-01  9.19D-01
                    CP:  7.52D-01
 E= -5368.78780359944     Delta-E=       -0.000550077904 Rises=F Damp=F
 DIIS: error= 2.54D-04 at cycle  12 NSaved=  12.
 NSaved=12 IEnMin=12 EnMin= -5368.78780359944     IErMin=12 ErrMin= 2.54D-04
 ErrMax= 2.54D-04  0.00D+00 EMaxC= 1.00D-01 BMatC= 4.06D-04 BMatP= 8.83D-03
 IDIUse=3 WtCom= 9.97D-01 WtEn= 2.54D-03
 Coeff-Com:  0.678D-03-0.145D-02 0.611D-03-0.122D-05 0.396D-03-0.655D-03
 Coeff-Com: -0.434D-01 0.190D-01 0.163D-02 0.109D+00 0.375D+00 0.539D+00
 Coeff-En:   0.000D+00 0.000D+00 0.000D+00 0.000D+00 0.000D+00 0.000D+00
 Coeff-En:   0.000D+00 0.000D+00 0.000D+00 0.000D+00 0.349D-01 0.965D+00
 Coeff:      0.676D-03-0.144D-02 0.609D-03-0.121D-05 0.395D-03-0.653D-03
 Coeff:     -0.433D-01 0.190D-01 0.162D-02 0.109D+00 0.374D+00 0.540D+00
 Gap=     0.170 Goal=   None    Shift=    0.000
 Gap=     0.090 Goal=   None    Shift=    0.000
 RMSDP=1.17D-05 MaxDP=1.91D-03 DE=-5.50D-04 OVMax= 2.08D-03

 Cycle  13  Pass 1  IDiag  1:
 RMSU=  8.81D-06    CP:  9.79D-01  2.33D-01  4.81D-01  3.09D-02  4.87D-01
                    CP:  5.58D-01  1.30D+00  1.28D+00  2.78D-01  9.24D-01
                    CP:  8.33D-01  7.31D-01
 E= -5368.78788676508     Delta-E=       -0.000083165647 Rises=F Damp=F
 DIIS: error= 9.57D-05 at cycle  13 NSaved=  13.
 NSaved=13 IEnMin=13 EnMin= -5368.78788676508     IErMin=13 ErrMin= 9.57D-05
 ErrMax= 9.57D-05  0.00D+00 EMaxC= 1.00D-01 BMatC= 5.24D-05 BMatP= 4.06D-04
 IDIUse=1 WtCom= 1.00D+00 WtEn= 0.00D+00
 Coeff-Com:  0.146D-03-0.353D-03 0.446D-03-0.154D-04 0.315D-02 0.715D-03
 Coeff-Com: -0.467D-02-0.412D-02-0.221D-02 0.589D-02 0.113D+00 0.286D+00
 Coeff-Com:  0.602D+00
 Coeff:      0.146D-03-0.353D-03 0.446D-03-0.154D-04 0.315D-02 0.715D-03
 Coeff:     -0.467D-02-0.412D-02-0.221D-02 0.589D-02 0.113D+00 0.286D+00
 Coeff:      0.602D+00
 Gap=     0.170 Goal=   None    Shift=    0.000
 Gap=     0.091 Goal=   None    Shift=    0.000
 RMSDP=4.88D-06 MaxDP=6.94D-04 DE=-8.32D-05 OVMax= 1.01D-03

 Cycle  14  Pass 1  IDiag  1:
 RMSU=  4.26D-06    CP:  9.79D-01  2.33D-01  4.81D-01  3.09D-02  4.87D-01
                    CP:  5.58D-01  1.30D+00  1.28D+00  2.79D-01  9.22D-01
                    CP:  8.64D-01  7.92D-01  9.49D-01
 E= -5368.78789795156     Delta-E=       -0.000011186477 Rises=F Damp=F
 DIIS: error= 3.95D-05 at cycle  14 NSaved=  14.
 NSaved=14 IEnMin=14 EnMin= -5368.78789795156     IErMin=14 ErrMin= 3.95D-05
 ErrMax= 3.95D-05  0.00D+00 EMaxC= 1.00D-01 BMatC= 8.64D-06 BMatP= 5.24D-05
 IDIUse=1 WtCom= 1.00D+00 WtEn= 0.00D+00
 Coeff-Com:  0.389D-03-0.548D-03 0.583D-04 0.640D-05 0.103D-02-0.887D-04
 Coeff-Com:  0.556D-02-0.528D-02-0.745D-03-0.190D-01-0.821D-02 0.550D-01
 Coeff-Com:  0.309D+00 0.663D+00
 Coeff:      0.389D-03-0.548D-03 0.583D-04 0.640D-05 0.103D-02-0.887D-04
 Coeff:      0.556D-02-0.528D-02-0.745D-03-0.190D-01-0.821D-02 0.550D-01
 Coeff:      0.309D+00 0.663D+00
 Gap=     0.170 Goal=   None    Shift=    0.000
 Gap=     0.091 Goal=   None    Shift=    0.000
 RMSDP=2.80D-06 MaxDP=2.86D-04 DE=-1.12D-05 OVMax= 8.20D-04

 Cycle  15  Pass 1  IDiag  1:
 RMSU=  1.75D-06    CP:  9.79D-01  2.33D-01  4.81D-01  3.09D-02  4.87D-01
                    CP:  5.58D-01  1.30D+00  1.28D+00  2.81D-01  9.21D-01
                    CP:  8.76D-01  8.45D-01  1.12D+00  9.83D-01
 E= -5368.78790122251     Delta-E=       -0.000003270954 Rises=F Damp=F
 DIIS: error= 2.48D-05 at cycle  15 NSaved=  15.
 NSaved=15 IEnMin=15 EnMin= -5368.78790122251     IErMin=15 ErrMin= 2.48D-05
 ErrMax= 2.48D-05  0.00D+00 EMaxC= 1.00D-01 BMatC= 4.05D-06 BMatP= 8.64D-06
 IDIUse=1 WtCom= 1.00D+00 WtEn= 0.00D+00
 Coeff-Com:  0.201D-03-0.220D-03-0.434D-04 0.716D-05-0.108D-03-0.276D-03
 Coeff-Com:  0.392D-02-0.841D-03 0.192D-04-0.118D-01-0.289D-01-0.374D-01
 Coeff-Com: -0.622D-02 0.288D+00 0.794D+00
 Coeff:      0.201D-03-0.220D-03-0.434D-04 0.716D-05-0.108D-03-0.276D-03
 Coeff:      0.392D-02-0.841D-03 0.192D-04-0.118D-01-0.289D-01-0.374D-01
 Coeff:     -0.622D-02 0.288D+00 0.794D+00
 Gap=     0.170 Goal=   None    Shift=    0.000
 Gap=     0.091 Goal=   None    Shift=    0.000
 RMSDP=1.91D-06 MaxDP=1.79D-04 DE=-3.27D-06 OVMax= 5.61D-04

 Cycle  16  Pass 1  IDiag  1:
 RMSU=  9.16D-07    CP:  9.79D-01  2.33D-01  4.81D-01  3.09D-02  4.87D-01
                    CP:  5.57D-01  1.30D+00  1.28D+00  2.81D-01  9.20D-01
                    CP:  8.81D-01  8.69D-01  1.23D+00  1.24D+00  1.15D+00
 E= -5368.78790241270     Delta-E=       -0.000001190181 Rises=F Damp=F
 DIIS: error= 1.06D-05 at cycle  16 NSaved=  16.
 NSaved=16 IEnMin=16 EnMin= -5368.78790241270     IErMin=16 ErrMin= 1.06D-05
 ErrMax= 1.06D-05  0.00D+00 EMaxC= 1.00D-01 BMatC= 1.10D-06 BMatP= 4.05D-06
 IDIUse=1 WtCom= 1.00D+00 WtEn= 0.00D+00
 Coeff-Com: -0.577D-04 0.915D-04-0.445D-04 0.832D-06-0.261D-03-0.101D-03
 Coeff-Com:  0.632D-03 0.159D-02 0.103D-03-0.107D-02-0.124D-01-0.370D-01
 Coeff-Com: -0.106D+00-0.663D-01 0.452D+00 0.769D+00
 Coeff:     -0.577D-04 0.915D-04-0.445D-04 0.832D-06-0.261D-03-0.101D-03
 Coeff:      0.632D-03 0.159D-02 0.103D-03-0.107D-02-0.124D-01-0.370D-01
 Coeff:     -0.106D+00-0.663D-01 0.452D+00 0.769D+00
 Gap=     0.170 Goal=   None    Shift=    0.000
 Gap=     0.091 Goal=   None    Shift=    0.000
 RMSDP=1.26D-06 MaxDP=1.01D-04 DE=-1.19D-06 OVMax= 3.84D-04

 Cycle  17  Pass 1  IDiag  1:
 RMSU=  4.87D-07    CP:  9.79D-01  2.33D-01  4.81D-01  3.09D-02  4.87D-01
                    CP:  5.58D-01  1.30D+00  1.28D+00  2.81D-01  9.19D-01
                    CP:  8.87D-01  8.82D-01  1.29D+00  1.39D+00  1.52D+00
                    CP:  1.05D+00
 E= -5368.78790283526     Delta-E=       -0.000000422564 Rises=F Damp=F
 DIIS: error= 3.46D-06 at cycle  17 NSaved=  17.
 NSaved=17 IEnMin=17 EnMin= -5368.78790283526     IErMin=17 ErrMin= 3.46D-06
 ErrMax= 3.46D-06  0.00D+00 EMaxC= 1.00D-01 BMatC= 1.53D-07 BMatP= 1.10D-06
 IDIUse=1 WtCom= 1.00D+00 WtEn= 0.00D+00
 Coeff-Com: -0.820D-04 0.989D-04-0.207D-04-0.131D-05-0.120D-03 0.455D-04
 Coeff-Com: -0.337D-03 0.661D-03 0.523D-04 0.191D-02-0.389D-03-0.110D-01
 Coeff-Com: -0.498D-01-0.912D-01 0.643D-01 0.371D+00 0.715D+00
 Coeff:     -0.820D-04 0.989D-04-0.207D-04-0.131D-05-0.120D-03 0.455D-04
 Coeff:     -0.337D-03 0.661D-03 0.523D-04 0.191D-02-0.389D-03-0.110D-01
 Coeff:     -0.498D-01-0.912D-01 0.643D-01 0.371D+00 0.715D+00
 Gap=     0.170 Goal=   None    Shift=    0.000
 Gap=     0.091 Goal=   None    Shift=    0.000
 RMSDP=4.89D-07 MaxDP=5.02D-05 DE=-4.23D-07 OVMax= 1.49D-04

 Cycle  18  Pass 1  IDiag  1:
 RMSU=  2.36D-07    CP:  9.79D-01  2.33D-01  4.81D-01  3.09D-02  4.87D-01
                    CP:  5.58D-01  1.30D+00  1.28D+00  2.81D-01  9.19D-01
                    CP:  8.88D-01  8.86D-01  1.31D+00  1.44D+00  1.66D+00
                    CP:  1.30D+00  1.02D+00
 E= -5368.78790290392     Delta-E=       -0.000000068658 Rises=F Damp=F
 DIIS: error= 4.07D-06 at cycle  18 NSaved=  18.
 NSaved=18 IEnMin=18 EnMin= -5368.78790290392     IErMin=17 ErrMin= 3.46D-06
 ErrMax= 4.07D-06  0.00D+00 EMaxC= 1.00D-01 BMatC= 9.69D-08 BMatP= 1.53D-07
 IDIUse=1 WtCom= 1.00D+00 WtEn= 0.00D+00
 Coeff-Com: -0.337D-04 0.375D-04-0.276D-05-0.106D-05-0.263D-04 0.645D-04
 Coeff-Com: -0.316D-03-0.282D-03 0.315D-04 0.139D-02 0.284D-02 0.358D-02
 Coeff-Com:  0.348D-02-0.258D-01-0.813D-01-0.302D-01 0.347D+00 0.779D+00
 Coeff:     -0.337D-04 0.375D-04-0.276D-05-0.106D-05-0.263D-04 0.645D-04
 Coeff:     -0.316D-03-0.282D-03 0.315D-04 0.139D-02 0.284D-02 0.358D-02
 Coeff:      0.348D-02-0.258D-01-0.813D-01-0.302D-01 0.347D+00 0.779D+00
 Gap=     0.170 Goal=   None    Shift=    0.000
 Gap=     0.091 Goal=   None    Shift=    0.000
 RMSDP=2.57D-07 MaxDP=3.03D-05 DE=-6.87D-08 OVMax= 7.67D-05

 Cycle  19  Pass 1  IDiag  1:
 RMSU=  1.22D-07    CP:  9.79D-01  2.33D-01  4.81D-01  3.09D-02  4.87D-01
                    CP:  5.58D-01  1.30D+00  1.28D+00  2.81D-01  9.19D-01
                    CP:  8.88D-01  8.86D-01  1.32D+00  1.46D+00  1.72D+00
                    CP:  1.41D+00  1.28D+00  1.13D+00
 E= -5368.78790292592     Delta-E=       -0.000000022004 Rises=F Damp=F
 DIIS: error= 1.99D-06 at cycle  19 NSaved=  19.
 NSaved=19 IEnMin=19 EnMin= -5368.78790292592     IErMin=19 ErrMin= 1.99D-06
 ErrMax= 1.99D-06  0.00D+00 EMaxC= 1.00D-01 BMatC= 2.29D-08 BMatP= 9.69D-08
 IDIUse=1 WtCom= 1.00D+00 WtEn= 0.00D+00
 Coeff-Com:  0.235D-05-0.257D-05 0.437D-05-0.145D-06 0.162D-04 0.234D-04
 Coeff-Com: -0.107D-03-0.328D-03-0.394D-05 0.301D-03 0.119D-02 0.333D-02
 Coeff-Com:  0.110D-01 0.897D-02-0.423D-01-0.879D-01-0.773D-02 0.307D+00
 Coeff-Com:  0.806D+00
 Coeff:      0.235D-05-0.257D-05 0.437D-05-0.145D-06 0.162D-04 0.234D-04
 Coeff:     -0.107D-03-0.328D-03-0.394D-05 0.301D-03 0.119D-02 0.333D-02
 Coeff:      0.110D-01 0.897D-02-0.423D-01-0.879D-01-0.773D-02 0.307D+00
 Coeff:      0.806D+00
 Gap=     0.170 Goal=   None    Shift=    0.000
 Gap=     0.091 Goal=   None    Shift=    0.000
 RMSDP=1.33D-07 MaxDP=1.50D-05 DE=-2.20D-08 OVMax= 4.90D-05

 Cycle  20  Pass 1  IDiag  1:
 RMSU=  5.62D-08    CP:  9.79D-01  2.33D-01  4.81D-01  3.09D-02  4.87D-01
                    CP:  5.58D-01  1.30D+00  1.28D+00  2.81D-01  9.19D-01
                    CP:  8.88D-01  8.86D-01  1.32D+00  1.46D+00  1.74D+00
                    CP:  1.45D+00  1.41D+00  1.45D+00  1.27D+00
 E= -5368.78790293181     Delta-E=       -0.000000005892 Rises=F Damp=F
 DIIS: error= 4.07D-07 at cycle  20 NSaved=  20.
 NSaved=20 IEnMin=20 EnMin= -5368.78790293181     IErMin=20 ErrMin= 4.07D-07
 ErrMax= 4.07D-07  0.00D+00 EMaxC= 1.00D-01 BMatC= 1.60D-09 BMatP= 2.29D-08
 IDIUse=1 WtCom= 1.00D+00 WtEn= 0.00D+00
 Coeff-Com:  0.108D-04-0.117D-04 0.243D-05 0.259D-06 0.629D-05-0.807D-05
 Coeff-Com:  0.147D-04-0.614D-04-0.374D-05-0.177D-03-0.206D-03 0.320D-03
 Coeff-Com:  0.316D-02 0.947D-02 0.847D-03-0.279D-01-0.831D-01-0.563D-01
 Coeff-Com:  0.342D+00 0.812D+00
 Coeff:      0.108D-04-0.117D-04 0.243D-05 0.259D-06 0.629D-05-0.807D-05
 Coeff:      0.147D-04-0.614D-04-0.374D-05-0.177D-03-0.206D-03 0.320D-03
 Coeff:      0.316D-02 0.947D-02 0.847D-03-0.279D-01-0.831D-01-0.563D-01
 Coeff:      0.342D+00 0.812D+00
 Gap=     0.170 Goal=   None    Shift=    0.000
 Gap=     0.091 Goal=   None    Shift=    0.000
 RMSDP=8.04D-08 MaxDP=1.02D-05 DE=-5.89D-09 OVMax= 3.88D-05

 Cycle  21  Pass 1  IDiag  1:
 Restarting incremental Fock formation.
 E= -5368.78790293368     Delta-E=       -0.000000001868 Rises=F Damp=F
 DIIS: error= 5.79D-07 at cycle  21 NSaved=  20.
 NSaved=20 IEnMin=20 EnMin= -5368.78790293368     IErMin=19 ErrMin= 4.07D-07
 ErrMax= 5.79D-07  0.00D+00 EMaxC= 1.00D-01 BMatC= 2.09D-09 BMatP= 1.60D-09
 IDIUse=1 WtCom= 1.00D+00 WtEn= 0.00D+00
 Coeff-Com:  0.271D-05-0.367D-05-0.910D-06-0.148D-05-0.106D-04 0.345D-04
 Coeff-Com:  0.866D-04 0.438D-07-0.153D-03-0.329D-03-0.633D-03-0.130D-02
 Coeff-Com:  0.173D-02 0.845D-02 0.101D-01-0.301D-01-0.948D-01-0.652D-01
 Coeff-Com:  0.378D+00 0.795D+00
 Coeff:      0.271D-05-0.367D-05-0.910D-06-0.148D-05-0.106D-04 0.345D-04
 Coeff:      0.866D-04 0.438D-07-0.153D-03-0.329D-03-0.633D-03-0.130D-02
 Coeff:      0.173D-02 0.845D-02 0.101D-01-0.301D-01-0.948D-01-0.652D-01
 Coeff:      0.378D+00 0.795D+00
 Gap=     0.170 Goal=   None    Shift=    0.000
 Gap=     0.091 Goal=   None    Shift=    0.000
 RMSDP=5.10D-08 MaxDP=5.02D-06 DE=-1.87D-09 OVMax= 2.55D-05

 Cycle  22  Pass 1  IDiag  1:
 RMSU=  5.10D-08    CP:  1.00D+00
 E= -5368.78790293438     Delta-E=       -0.000000000702 Rises=F Damp=F
 DIIS: error= 3.58D-07 at cycle  22 NSaved=  20.
 NSaved=20 IEnMin=20 EnMin= -5368.78790293438     IErMin=20 ErrMin= 3.58D-07
 ErrMax= 3.58D-07  0.00D+00 EMaxC= 1.00D-01 BMatC= 7.29D-10 BMatP= 1.60D-09
 IDIUse=1 WtCom= 1.00D+00 WtEn= 0.00D+00
 Coeff-Com: -0.390D-06-0.798D-06-0.314D-05-0.815D-05 0.118D-04 0.102D-03
 Coeff-Com:  0.221D-05-0.490D-04-0.116D-03-0.436D-03-0.156D-02-0.107D-02
 Coeff-Com:  0.410D-02 0.140D-01 0.102D-01-0.361D-01-0.185D+00-0.109D+00
 Coeff-Com:  0.439D+00 0.866D+00
 Coeff:     -0.390D-06-0.798D-06-0.314D-05-0.815D-05 0.118D-04 0.102D-03
 Coeff:      0.221D-05-0.490D-04-0.116D-03-0.436D-03-0.156D-02-0.107D-02
 Coeff:      0.410D-02 0.140D-01 0.102D-01-0.361D-01-0.185D+00-0.109D+00
 Coeff:      0.439D+00 0.866D+00
 Gap=     0.170 Goal=   None    Shift=    0.000
 Gap=     0.091 Goal=   None    Shift=    0.000
 RMSDP=4.30D-08 MaxDP=4.59D-06 DE=-7.02D-10 OVMax= 2.33D-05

 Cycle  23  Pass 1  IDiag  1:
 RMSU=  1.90D-08    CP:  1.00D+00  1.76D+00
 E= -5368.78790293465     Delta-E=       -0.000000000262 Rises=F Damp=F
 DIIS: error= 6.44D-08 at cycle  23 NSaved=  20.
 NSaved=20 IEnMin=20 EnMin= -5368.78790293465     IErMin=20 ErrMin= 6.44D-08
 ErrMax= 6.44D-08  0.00D+00 EMaxC= 1.00D-01 BMatC= 5.15D-11 BMatP= 7.29D-10
 IDIUse=1 WtCom= 1.00D+00 WtEn= 0.00D+00
 Coeff-Com:  0.578D-07-0.130D-05-0.252D-05-0.913D-07 0.291D-04 0.157D-05
 Coeff-Com:  0.313D-05 0.228D-04-0.626D-04-0.365D-03-0.591D-03-0.136D-03
 Coeff-Com:  0.370D-02 0.963D-02 0.271D-02-0.678D-01-0.110D+00 0.324D-01
 Coeff-Com:  0.379D+00 0.752D+00
 Coeff:      0.578D-07-0.130D-05-0.252D-05-0.913D-07 0.291D-04 0.157D-05
 Coeff:      0.313D-05 0.228D-04-0.626D-04-0.365D-03-0.591D-03-0.136D-03
 Coeff:      0.370D-02 0.963D-02 0.271D-02-0.678D-01-0.110D+00 0.324D-01
 Coeff:      0.379D+00 0.752D+00
 Gap=     0.170 Goal=   None    Shift=    0.000
 Gap=     0.091 Goal=   None    Shift=    0.000
 RMSDP=1.41D-08 MaxDP=1.39D-06 DE=-2.62D-10 OVMax= 7.27D-06

 Cycle  24  Pass 1  IDiag  1:
 RMSU=  5.64D-09    CP:  1.00D+00  2.00D+00  1.14D+00
 E= -5368.78790293478     Delta-E=       -0.000000000138 Rises=F Damp=F
 DIIS: error= 4.10D-08 at cycle  24 NSaved=  20.
 NSaved=20 IEnMin=20 EnMin= -5368.78790293478     IErMin=20 ErrMin= 4.10D-08
 ErrMax= 4.10D-08  0.00D+00 EMaxC= 1.00D-01 BMatC= 1.27D-11 BMatP= 5.15D-11
 IDIUse=1 WtCom= 1.00D+00 WtEn= 0.00D+00
 Coeff-Com: -0.615D-06 0.123D-06-0.124D-05-0.745D-05 0.826D-06 0.107D-04
 Coeff-Com:  0.237D-04 0.136D-04 0.532D-04-0.780D-04-0.759D-03-0.777D-03
 Coeff-Com:  0.264D-02 0.854D-02 0.458D-02-0.275D-01-0.817D-01-0.228D-01
 Coeff-Com:  0.371D+00 0.747D+00
 Coeff:     -0.615D-06 0.123D-06-0.124D-05-0.745D-05 0.826D-06 0.107D-04
 Coeff:      0.237D-04 0.136D-04 0.532D-04-0.780D-04-0.759D-03-0.777D-03
 Coeff:      0.264D-02 0.854D-02 0.458D-02-0.275D-01-0.817D-01-0.228D-01
 Coeff:      0.371D+00 0.747D+00
 Gap=     0.170 Goal=   None    Shift=    0.000
 Gap=     0.091 Goal=   None    Shift=    0.000
 RMSDP=6.56D-09 MaxDP=6.14D-07 DE=-1.38D-10 OVMax= 3.49D-06

 Error on total polarization charges =  0.03100
 SCF Done:  E(UMN15) =  -5368.78790293     A.U. after   24 cycles
            NFock= 24  Conv=0.66D-08     -V/T= 2.0908
 <Sx>= 0.0000 <Sy>= 0.0000 <Sz>= 0.5000 <S**2>= 0.7642 S= 0.5071
 <L.S>=  0.00000000000    
 KE= 4.921910563832D+03 PE=-3.603394905495D+04 EE= 1.411462644527D+04
 SMD-CDS (non-electrostatic) energy       (kcal/mol) =       4.11
 (included in total energy above)
 Annihilation of the first spin contaminant:
 S**2 before annihilation     0.7642,   after     0.7501
 Leave Link  502 at Sat Feb  8 14:44:31 2025, MaxMem= 82678120448 cpu:           52125.6 elap:            2177.0
 (Enter /sysapps/ubuntu-applications/gaussian-new/avx/g16/l801.exe)
 DoSCS=F DFT=T ScalE2(SS,OS)=  1.000000  1.000000
 Range of M.O.s used for correlation:     1   916
 NBasis=   916 NAE=   230 NBE=   229 NFC=     0 NFV=     0
 NROrb=    916 NOA=   230 NOB=   229 NVA=   686 NVB=   687

 **** Warning!!: The largest alpha MO coefficient is  0.12749730D+02


 **** Warning!!: The largest beta MO coefficient is  0.13123318D+02


 **** Warning!!: The smallest beta delta epsilon is  0.91312630D-01

 Leave Link  801 at Sat Feb  8 14:44:32 2025, MaxMem= 82678120448 cpu:               2.8 elap:               0.1
 (Enter /sysapps/ubuntu-applications/gaussian-new/avx/g16/l1101.exe)
 Using compressed storage, NAtomX=    69.
 Will process     70 centers per pass.
   1 Symmetry operations used in ECPInt.
 ECPInt:  NShTT=   77815 NPrTT=  297642 LenC2=   60103 LenP2D=  139235.
 LDataN:  DoStor=T MaxTD1=10 Len=  848
 Leave Link 1101 at Sat Feb  8 14:44:50 2025, MaxMem= 82678120448 cpu:             443.1 elap:              18.5
 (Enter /sysapps/ubuntu-applications/gaussian-new/avx/g16/l1102.exe)
 Symmetrizing basis deriv contribution to polar:
 IMax=3 JMax=2 DiffMx= 0.00D+00
 Leave Link 1102 at Sat Feb  8 14:44:51 2025, MaxMem= 82678120448 cpu:               7.8 elap:               0.4
 (Enter /sysapps/ubuntu-applications/gaussian-new/avx/g16/l1110.exe)
 Forming Gx(P) for the SCF density, NAtomX=    69.
 Integral derivatives from FoFJK, PRISM(SPDF).
 Do as many integral derivatives as possible in FoFJK.
 G2DrvN: MDV=   82678114654.
 G2DrvN: will do    70 centers at a time, making    1 passes.
 Calling FoFCou, ICntrl=  3107 FMM=T I1Cent=   0 AccDes= 0.00D+00.
 FoFJK:  IHMeth= 1 ICntrl=    3107 DoSepK=F KAlg= 0 I1Cent=           0 FoldK=F
 IRaf=         0 NMat=       1 IRICut=       1 DoRegI=T DoRafI=F ISym2E= 0 IDoP0=0 IntGTp=1.
 FoFCou: FMM=T IPFlag=           0 FMFlag=      100000 FMFlg1=        2001
         NFxFlg=           0 DoJE=F BraDBF=F KetDBF=F FulRan=T
         wScrn=  0.000000 ICntrl=      3107 IOpCl=  1 I1Cent=           0 NGrid=           0
         NMat0=    1 NMatS0=      1 NMatT0=    0 NMatD0=    1 NMtDS0=    0 NMtDT0=    0
 Symmetry not used in FoFCou.
 FMM levels:  10  Number of levels for PrismC:   9
 Defaulting to unpruned grid for atomic number  70.
 Defaulting to unpruned grid for atomic number  70.
 Defaulting to unpruned grid for atomic number  70.
 Defaulting to unpruned grid for atomic number  70.
 Defaulting to unpruned grid for atomic number  70.
 Defaulting to unpruned grid for atomic number  70.
 Defaulting to unpruned grid for atomic number  70.
 Defaulting to unpruned grid for atomic number  70.
 Defaulting to unpruned grid for atomic number  70.
 Defaulting to unpruned grid for atomic number  70.
 Defaulting to unpruned grid for atomic number  70.
 Defaulting to unpruned grid for atomic number  70.
 Defaulting to unpruned grid for atomic number  70.
 Defaulting to unpruned grid for atomic number  70.
 Defaulting to unpruned grid for atomic number  70.
 Defaulting to unpruned grid for atomic number  70.
 Defaulting to unpruned grid for atomic number  70.
 Defaulting to unpruned grid for atomic number  70.
 Defaulting to unpruned grid for atomic number  70.
 Defaulting to unpruned grid for atomic number  70.
 Defaulting to unpruned grid for atomic number  70.
 Defaulting to unpruned grid for atomic number  70.
 Defaulting to unpruned grid for atomic number  70.
 Defaulting to unpruned grid for atomic number  70.
 NEqPCM:  Using equilibrium solvation (IEInf=0, Eps=  10.1250, EpsInf=   2.0874)
 G2PCM: DoFxE=T DoFxN=T DoGrad=T DoDP/DQ/DG/TGxP=FFFF NFrqRd=   0 IEInf=0 SqF1=F DoCFld=F IF1Alg=4.
 GePol: Maximum number of non-zero 1st derivatives   =     266
 End of G2Drv F.D. properties file   721 does not exist.
 End of G2Drv F.D. properties file   722 does not exist.
 End of G2Drv F.D. properties file   788 does not exist.
 Leave Link 1110 at Sat Feb  8 16:11:37 2025, MaxMem= 82678120448 cpu:          124922.4 elap:            5205.6
 (Enter /sysapps/ubuntu-applications/gaussian-new/avx/g16/l1002.exe)
 Minotr:  UHF open shell wavefunction.
          IDoAtm=11111111111111111111111111111111111111111111111111
          IDoAtm=1111111111111111111
 NEqPCM:  Using equilibrium solvation (IEInf=0, Eps=  10.1250, EpsInf=   2.0874)
          Direct CPHF calculation.
          Differentiating once with respect to electric field.
                with respect to dipole field.
          Differentiating once with respect to nuclear coordinates.
          Requested convergence is 1.0D-08 RMS, and 1.0D-07 maximum.
          Secondary convergence is 1.0D-12 RMS, and 1.0D-12 maximum.
          NewPWx=T KeepS1=F KeepF1=F KeepIn=T MapXYZ=F SortEE=F KeepMc=T.
 Defaulting to unpruned grid for atomic number  70.
        21424 words used for storage of precomputed grid.
 Two-electron integrals replicated using symmetry.
          MDV=   82678120448 using IRadAn=       1.
          Solving linear equations simultaneously, MaxMat=      72.
 FoF2E skips out because all densities are zero.
 CalDSu exits because no D1Ps are significant.
 FoFJK:  IHMeth= 1 ICntrl=       0 DoSepK=F KAlg= 0 I1Cent=           0 FoldK=F
 IRaf= 800000000 NMat=      72 IRICut=       1 DoRegI=T DoRafI=F ISym2E= 2 IDoP0=3 IntGTp=3.
 Defaulting to unpruned grid for atomic number  70.
 Defaulting to unpruned grid for atomic number  70.
 Defaulting to unpruned grid for atomic number  70.
 Defaulting to unpruned grid for atomic number  70.
 Defaulting to unpruned grid for atomic number  70.
 Defaulting to unpruned grid for atomic number  70.
 Defaulting to unpruned grid for atomic number  70.
 Defaulting to unpruned grid for atomic number  70.
 Defaulting to unpruned grid for atomic number  70.
 Defaulting to unpruned grid for atomic number  70.
 Defaulting to unpruned grid for atomic number  70.
 Defaulting to unpruned grid for atomic number  70.
 Defaulting to unpruned grid for atomic number  70.
 Defaulting to unpruned grid for atomic number  70.
 Defaulting to unpruned grid for atomic number  70.
 Defaulting to unpruned grid for atomic number  70.
 Defaulting to unpruned grid for atomic number  70.
 Defaulting to unpruned grid for atomic number  70.
 Defaulting to unpruned grid for atomic number  70.
 Defaulting to unpruned grid for atomic number  70.
 Defaulting to unpruned grid for atomic number  70.
 Defaulting to unpruned grid for atomic number  70.
 Defaulting to unpruned grid for atomic number  70.
 Defaulting to unpruned grid for atomic number  70.
          There are   210 degrees of freedom in the 1st order CPHF.  IDoFFX=6 NUNeed=     3.
    210 vectors produced by pass  0 Test12= 3.15D-13 1.00D-09 XBig12= 4.52D+02 4.36D+00.
 AX will form    72 AO Fock derivatives at one time.
    207 vectors produced by pass  1 Test12= 3.15D-13 1.00D-09 XBig12= 9.79D+01 1.40D+00.
    207 vectors produced by pass  2 Test12= 3.15D-13 1.00D-09 XBig12= 4.72D+00 2.34D-01.
    207 vectors produced by pass  3 Test12= 3.15D-13 1.00D-09 XBig12= 1.05D-01 4.57D-02.
    207 vectors produced by pass  4 Test12= 3.15D-13 1.00D-09 XBig12= 1.57D-03 3.01D-03.
    207 vectors produced by pass  5 Test12= 3.15D-13 1.00D-09 XBig12= 1.45D-05 2.32D-04.
    205 vectors produced by pass  6 Test12= 3.15D-13 1.00D-09 XBig12= 1.29D-07 2.10D-05.
    122 vectors produced by pass  7 Test12= 3.15D-13 1.00D-09 XBig12= 1.03D-09 2.05D-06.
     23 vectors produced by pass  8 Test12= 3.15D-13 1.00D-09 XBig12= 7.88D-12 1.31D-07.
      3 vectors produced by pass  9 Test12= 3.15D-13 1.00D-09 XBig12= 1.10D-13 2.88D-08.
      3 vectors produced by pass 10 Test12= 3.15D-13 1.00D-09 XBig12= 4.28D-15 3.57D-09.
 InvSVY:  IOpt=1 It=  1 EMax= 2.84D-14
 Solved reduced A of dimension  1601 with   210 vectors.
 FullF1:  Do perturbations      1 to       3.
 Isotropic polarizability for W=    0.000000      454.09 Bohr**3.
 End of Minotr F.D. properties file   721 does not exist.
 End of Minotr F.D. properties file   722 does not exist.
 End of Minotr F.D. properties file   788 does not exist.
[...]
 00015419,-0.00013833,0.00003571,-0.00005086,0.00017201,-0.00031116,-0.
 00007687,0.00031937,0.00216291,0.00062325,-0.00086930,-0.00196580,-0.0
 0146563,-0.00368546,-0.04337900,0.04985436,0.01249186,0.05777236,-0.00
 012119,-0.00005717,0.00003101,0.00000493,-0.00000437,-0.00004206,0.000
 01206,-0.00000514,-0.00001569,0.00000544,-0.00000988,-0.00000900,0.000
 02441,-0.00000684,-0.00000503,0.00001150,-0.00002631,0.00004179,0.0024
 9967,0.00174444,-0.00325682,0.00011048,-0.00017607,0.00088046,-0.00038
 110,-0.00059878,0.00103359,-0.00001009,-0.00000137,-0.00000541,0.00000
 582,-0.00000454,-0.00000064,-0.00000053,-0.00000431,-0.00000091,0.0000
 0696,-0.00000743,-0.00000646,0.00000200,-0.00000355,0.00002205,-0.0000
 6342,0.00024834,-0.00008148,-0.00015663,0.00001284,-0.00004444,-0.0001
 1399,-0.00022403,0.00015085,-0.00285764,-0.00064267,-0.00134634,0.0000
 0580,-0.00003357,-0.00008478,-0.00024086,-0.00001729,-0.00032484,0.000
 00004,-0.00000610,-0.00001057,-0.00000719,-0.00000956,0.00001128,-0.00
 000409,-0.00001047,0.00001553,-0.00001482,0.00001995,0.00001649,0.0000
 1391,-0.00000261,0.00003033,0.00003091,0.00000057,0.00008756,0.0000216
 5,0.00001242,-0.00002108,-0.00002471,-0.00001303,0.00001868,-0.0000002
 6,0.00000980,-0.00001664,0.00000436,-0.00000532,0.00002155,-0.00002687
 ,-0.00002002,0.00001090,0.00008865,-0.00003271,-0.00011894,-0.00000193
 ,0.00000348,-0.00000816,-0.00000271,-0.00000031,-0.00000581,0.00000623
 ,0.00000648,-0.00000794,0.00000599,0.00000415,-0.00000874,-0.00017552,
 -0.00012127,0.00001133,0.00000986,0.00002475,-0.00000457,0.00002416,-0
 .00001427,0.00002997,-0.00000886,-0.00000175,0.00001523,0.00001742,0.0
 0001212,0.00000952,-0.00000535,0.00000935,-0.00001486,-0.00001248,-0.0
 0000056,-0.00000676,-0.00000858,0.00000748,-0.00000239,0.00000092,0.00
 000141,-0.00000982,0.00000374,-0.00000106,-0.00000364,0.00000545,0.000
 00301,-0.00000277,-0.00000987,-0.00000814,-0.00000506,-0.00000360,-0.0
 0000113,-0.00000351,-0.00000337,-0.00000161,-0.00000274,0.00031309,0.0
 0047841,-0.00005790,0.00001117,-0.00002804,-0.00002937,-0.00007489,-0.
 00084262,0.00022270,0.00000139,-0.00011655,0.00006657,0.00037960,0.000
 40384,0.00033228,0.00656247,-0.00538772,-0.01376491,0.00072179,-0.0011
 2728,-0.00090409,0.00305023,0.00090493,0.00173112,-0.00057303,-0.00080
 681,0.00086541,-0.00006599,-0.00007603,0.00004955,-0.00022019,-0.00018
 202,0.00004158,0.00006956,0.00000679,-0.00001027,0.00020551,-0.0000128
 0,-0.00046621,-0.01069785,-0.00063231,-0.01899533,-0.00078126,0.005306
 06,0.00219264,0.05491173,0.05706384,-0.27085818,-0.05226101,-0.0544944
 1,0.30267858,0.00022548,0.00020658,0.00004833,0.00001425,-0.00003237,-
 0.00020108,0.00003330,-0.00004819,-0.00002261,0.00002891,-0.00004607,-
 0.00000848,0.00003607,-0.00000554,0.00003318,0.00005194,-0.00007955,0.
 00005403,-0.00248362,-0.00003003,0.00079337,-0.01620600,-0.02010859,-0
 .00494055,-0.00795906,-0.01723998,0.00484006,-0.00003808,0.00001329,-0
 .00001913,0.00002023,-0.00003106,0.00000445,0.00001555,-0.00002129,-0.
 00000546,0.00001131,-0.00002250,-0.00002680,-0.00004332,0.00001942,0.0
 0013173,-0.00527020,0.00365837,0.00715651,-0.01048660,0.00710379,-0.00
 691233,0.00482021,0.00729746,0.00840812,-0.00088393,0.00823616,-0.0050
 6917,0.00038673,0.00053066,-0.00364155,0.00221077,-0.00072979,0.002364
 19,0.00010445,0.00006763,0.00026009,0.00016227,-0.00038612,0.00008423,
 -0.00022844,-0.00019363,0.00029285,-0.00020060,0.00012571,-0.00016174,
 -0.00034591,-0.00003395,-0.00013890,0.00037183,0.00039510,-0.00057493,
 -0.00532860,0.00210095,-0.00247361,-0.00570913,0.00011683,0.00405826,-
 0.00920684,0.00271071,0.00435633,0.01138090,0.00538659,-0.00981067,-0.
 01797733,0.00776312,-0.02343286,0.01012960,0.00128402,-0.00696657,-0.0
 0565473,-0.00085503,0.00401047,-0.00230465,-0.00195365,0.00143212,-0.0
 0727552,-0.00234952,-0.00524610,0.00371953,-0.00164111,0.00619501,-0.0
 0822083,0.00215054,0.00371325,-0.00170614,-0.00050908,0.00103097,0.002
 58387,0.00253681,0.00203537,-0.01020944,0.00091450,-0.00248975,-0.0004
 3310,0.00296681,0.00004300,-0.00049387,-0.00044554,-0.00015771,-0.0020
 8099,-0.00166608,-0.00083989,-0.00061347,-0.00011723,-0.00027663,-0.01
 499108,0.00089341,0.00475386,0.00312346,-0.00223239,-0.00035916,0.0032
 3830,0.00173509,0.00042688,-0.00042441,-0.00140667,0.00005611,0.000104
 74,-0.00093615,0.00107126,-0.00011210,-0.00032991,-0.00007937,-0.00235
 336,-0.00011852,-0.00079608,-0.00016129,0.00030229,0.00004571,-0.00032
 889,0.00030332,0.00039642,-0.00005708,0.00015474,-0.00009011,-0.000151
 56,-0.00003044,0.00012799,0.00043241,-0.00049810,-0.00005388,0.0002800
 1,-0.00061083,-0.00033766,-0.00007531,-0.00003254,-0.00005172,0.000053
 33,-0.00029401,-0.00002904,0.00002352,0.00000249,-0.00004689,0.0000237
 2,-0.00003145,0.00002742,0.00013762,-0.00004254,0.00007400,0.00007423,
 0.00003359,-0.00011025,-0.00020569,0.00041825,-0.00052439,0.00000666,0
 .00033505,0.00070822,0.00057786,0.00035971,-0.00019965,-0.00002782,-0.
 00001388,-0.00001304,0.09249423,-0.00000686,0.00003990,0.00008386,-0.0
 0000588,-0.00003160,-0.00009040,0.00001782,-0.00005162,0.00000024,0.00
 001829,-0.00003882,-0.00001365,0.00001690,-0.00004199,0.00000360,-0.00
 001480,-0.00006111,0.00000956,-0.00199264,0.00026875,0.00046456,-0.005
 17985,-0.00030830,-0.00198035,-0.00692832,-0.00574844,0.00412585,0.000
 00830,0.00002460,0.00000260,0.00002304,-0.00000746,-0.00000341,0.00001
 352,-0.00000130,-0.00000266,0.00002167,0.00000103,-0.00001705,-0.00000
 062,0.00004314,0.00004428,0.00049447,-0.00124777,0.00168723,0.00043811
 ,-0.00256657,-0.00008753,0.00038756,-0.00030833,0.00136634,0.00006682,
 0.00212010,-0.00228904,-0.00037259,0.00021563,-0.00079107,0.00009305,-
 0.00021567,0.00130705,0.00004733,-0.00000137,0.00004955,-0.00022438,0.
 00035558,-0.00045186,0.00023427,-0.00002720,0.00007631,0.00015644,0.00
 007812,-0.00019862,0.00001698,0.00003061,-0.00016730,0.00009945,-0.000
 39926,0.00060297,-0.00111230,-0.01694169,0.00143138,-0.00163587,-0.005
 32795,-0.00333971,0.00378830,-0.00669042,-0.00637185,0.00046127,-0.044
 72964,0.01523486,0.00777983,0.02581797,0.00836097,0.00080994,-0.027765
 15,-0.02169342,-0.00029943,-0.00754685,0.00427130,0.00261629,0.0091479
 9,-0.00114054,-0.00118406,-0.01495071,-0.00667210,-0.00116843,-0.00392
 478,-0.00187750,0.00096756,0.00496958,0.00501283,0.00204728,0.00555791
 ,0.00561729,0.00550880,-0.00607924,0.00057284,0.00136748,-0.00035892,-
 0.00104645,0.00845427,-0.00284954,0.00550331,-0.00116374,0.00204603,-0
 .00122747,-0.00182578,0.00101186,0.00001974,-0.00214239,0.00306681,0.0
 0136166,0.00383370,-0.00299736,0.00242501,0.00040198,-0.00062417,-0.00
 019039,-0.00180708,-0.00105549,0.00026735,-0.00257751,-0.00023823,-0.0
 0170637,-0.00162333,0.00231060,-0.00403527,-0.00362469,0.00239761,-0.0
 0041864,-0.00059649,0.00024074,-0.00046560,-0.00001783,0.00012295,0.00
 005409,-0.00035552,0.00012784,0.00027691,-0.00001268,0.00008400,-0.000
 03207,-0.00002284,-0.00002921,0.00002930,-0.00076146,-0.00045607,-0.00
 066247,-0.00037382,-0.00014057,-0.00035971,0.00053640,0.00010471,0.000
 78512,-0.00025687,-0.00063261,0.00017407,0.00002551,0.00001301,-0.0000
 3223,-0.00005923,-0.00012048,-0.00002503,0.00006818,-0.00004894,0.0000
 4040,0.00002750,0.00000499,-0.00005669,-0.00001569,-0.00013750,-0.0003
 9896,0.00020045,0.00026666,0.00056939,-0.00002774,-0.00014283,0.000218
 99,-0.00013289,-0.00004995,0.00000521,-0.00504215,0.09498745,-0.000076
 41,0.00001161,-0.00007220,-0.00000811,0.00001579,0.00003075,0.00000094
 ,0.00001135,-0.00003141,0.00000351,-0.00000401,0.00000201,-0.00001894,
 -0.00000626,-0.00002430,0.00004201,-0.00004896,0.00002660,0.00003402,-
 0.00026570,0.00037793,-0.00788331,-0.00847532,0.00149943,0.01094356,0.
 01673568,0.00044823,-0.00001844,-0.00000340,-0.00001406,-0.00000788,0.
 00000492,0.00000182,-0.00000072,0.00000088,0.00000008,0.00001382,-0.00
 000689,-0.00000685,0.00003170,0.00001262,-0.00001742,0.00137196,-0.003
 63633,-0.01136269,-0.00185159,0.00299810,-0.00600427,0.00233563,0.0028
 3687,0.00187368,-0.00106303,-0.00736758,0.00313943,-0.00039704,0.00005
 143,-0.00074462,-0.00057250,0.00038148,-0.00146420,0.00017422,0.000054
 84,0.00000924,-0.00011549,-0.00024209,-0.00066177,0.00000648,-0.000050
 59,0.00004896,-0.00025668,-0.00014616,0.00021031,0.00024573,0.00001028
 ,-0.00000988,0.00017458,0.00100839,-0.00017449,-0.00000490,0.00341563,
 -0.00990828,0.00386891,0.00042252,-0.01843058,0.00390287,-0.00264306,-
 0.01158348,-0.01003546,0.01659542,0.01779896,-0.02784581,0.00967466,-0
 .01870325,-0.00768601,-0.02368645,0.00766070,0.00317892,0.00071166,-0.
 01739981,0.00069254,-0.00356358,-0.00296760,-0.00061126,-0.00537889,-0
 .00331683,0.00375916,-0.00186951,0.00479895,0.00286114,0.00249569,-0.0
 0932122,0.00221808,0.00411481,-0.00043498,0.00420472,-0.00084691,0.001
 59278,-0.00502567,-0.00098536,0.00646142,-0.00064945,0.00226960,-0.002
 24133,-0.00121189,0.00150348,-0.00228992,-0.00097495,0.00004013,-0.000
 58361,-0.00108319,0.00094531,0.00025770,0.00414962,0.00008752,-0.00567
 010,0.00278540,-0.00142861,-0.00161963,0.00256032,0.00123764,-0.001016
 11,0.00012104,-0.00108044,0.00011232,-0.00002993,-0.00026814,0.0000902
 3,0.00175897,-0.00149447,-0.00005015,0.00023212,-0.00007453,0.00043752
 ,-0.00018729,0.00008221,-0.00008249,-0.00012261,-0.00005911,0.00002103
 ,-0.00000317,-0.00002418,0.00000644,0.00004905,0.00002580,-0.00000095,
 -0.00021773,-0.00013283,-0.00005791,-0.00023701,-0.00003333,-0.0000047
 2,0.00015348,0.00005345,0.00020188,-0.00011169,0.00001818,0.00025901,-
 0.00001047,-0.00001095,0.00000371,-0.00002826,-0.00006626,-0.00000690,
 -0.00000222,0.00001197,-0.00002747,-0.00002620,-0.00000434,-0.00003362
 ,-0.00018352,-0.00038421,-0.00017448,-0.00010363,0.00006662,-0.0001565
 2,-0.00028114,0.00025500,-0.00057035,0.00035240,0.00030753,0.00007774,
 0.01710982,-0.00425562,0.08060450,-0.03083827,0.00966127,-0.01462304,-
 0.00213756,0.00106759,0.00431952,0.00012811,0.00132814,-0.00092862,-0.
 00036387,0.00035944,0.00026361,-0.00043287,0.00041500,-0.00076272,0.00
 122673,-0.00036516,-0.00196010,-0.15014476,0.07635541,0.04580558,-0.01
 796375,0.02119554,0.00670853,-0.03183437,0.02716365,0.01546523,-0.0001
 3694,-0.00039876,0.00012971,-0.00021025,0.00046046,0.00011165,-0.00011
 659,0.00006746,0.00006254,-0.00013181,0.00002740,0.00016027,-0.0006447
 2,0.00037910,0.00007786,0.00105003,-0.00072425,-0.00366206,0.00095131,
 -0.00329818,0.00258020,0.00013841,0.00029758,0.00984341,-0.00349954,0.
 00273413,-0.00694388,0.00123163,0.00018646,-0.00167305,0.00218713,-0.0
 0094014,-0.00008400,-0.00003985,-0.00010378,0.00046481,0.00004739,-0.0
 0005715,0.00009971,-0.00016993,-0.00004102,0.00062485,-0.00019217,0.00
 009374,-0.00035229,-0.00056738,0.00028775,-0.00044462,0.00011895,-0.00
 002405,-0.00003436,-0.00099127,-0.00027595,-0.00040195,-0.00088390,0.0
 0004274,0.00080930,-0.00031575,-0.00100988,0.00034028,0.00038820,0.001
 43656,-0.00053293,0.00122843,0.00038342,0.00085229,0.00221325,-0.00140
 955,-0.00371052,-0.00015501,-0.00068305,0.00022063,-0.00019711,-0.0005
 0090,0.00006339,-0.00061333,-0.00013996,-0.00032536,-0.00029418,-0.000
 01902,-0.00034892,-0.00301488,0.00164902,0.00252333,-0.00029317,0.0007
 0725,0.00081898,0.00110606,-0.00079306,0.00046074,0.00047751,0.0000260
 1,-0.00018279,-0.00027580,0.00066076,-0.00017380,-0.00021418,0.0002784
 4,-0.00019331,-0.00056490,0.00002406,-0.00009942,-0.00048340,0.0006010
 1,0.00024750,-0.00013889,-0.00000783,0.00007262,-0.00017761,0.00008671
 ,0.00005176,-0.00025755,-0.00014860,0.00002410,0.00000096,-0.00036986,
 0.00007556,0.00003035,-0.00020595,0.00024898,0.00022555,-0.00022955,-0
 .00005128,-0.16503961,0.01722937,-0.09147212,-0.00474129,0.00180284,-0
 .00806523,-0.04630470,-0.01288604,-0.02331620,-0.00021552,-0.00799508,
 0.00213406,0.00167121,0.00340164,-0.00425573,0.00251084,-0.00326394,-0
 .00225673,0.00075318,-0.00064873,-0.00101590,0.00043435,0.00055674,0.0
 0173429,0.00011885,-0.00029553,-0.00025889,0.00009214,0.00008126,-0.00
 011801,-0.00002705,-0.00016471,0.00025662,-0.00118746,0.00135460,-0.00
 135455,-0.00064891,-0.00035504,0.00087209,-0.00317022,0.00546424,-0.00
 093430,0.00098628,0.00102533,0.00237511,0.00428391,0.00947102,0.002698
 14,-0.00083652,-0.00023588,-0.00020601,0.00337170,0.00151701,-0.000393
 12,0.44349437,0.02927755,-0.00329305,0.01752303,0.00224417,-0.00205233
 ,-0.00413338,0.00012269,-0.00173008,0.00053241,0.00041794,-0.00041232,
 0.00031751,-0.00014202,-0.00016394,0.00084653,0.00021332,0.00013219,-0
 .00024482,0.06964694,-0.12692104,-0.05387645,0.00425864,-0.00302304,-0
 .00613598,0.01207401,-0.00917914,-0.00071983,0.00021827,0.00048746,-0.
 00021675,0.00019890,-0.00040774,-0.00011205,0.00014577,-0.00002370,-0.
 00005571,0.00005852,0.00002565,-0.00012428,0.00100650,-0.00038472,0.00
 010639,-0.00018899,0.00211020,0.00091746,0.00100015,0.00314470,-0.0009
 7228,0.00042515,0.00104091,-0.00141119,0.00115110,0.00095481,0.0010279
 0,-0.00023195,0.00003090,0.00023207,-0.00067991,0.00043456,0.00012990,
 0.00001377,0.00001068,-0.00004457,0.00000564,0.00001135,-0.00002474,0.
 00006144,0.00000883,-0.00019663,0.00005505,-0.00002475,0.00008660,0.00
 017869,-0.00006872,0.00017394,-0.00003984,0.00000089,-0.00001411,0.000
 14770,0.00014978,0.00005828,0.00019032,0.00033703,-0.00018176,-0.00024
 718,0.00004096,0.00005924,0.00032938,-0.00006289,-0.00023464,-0.000122
 03,-0.00025271,-0.00011341,-0.00084636,-0.00031793,0.00071647,-0.00012
 003,0.00016927,0.00007809,-0.00008618,-0.00003055,0.00003297,-0.000005
 34,0.00011294,0.00001636,0.00002834,0.00004562,0.00004234,0.00031099,0
 .00027795,-0.00037838,0.00035654,0.00009625,-0.00015282,-0.00031090,0.
 00008582,-0.00003246,-0.00004356,-0.00003964,0.00001908,0.00026003,0.0
 0010098,-0.00015329,0.00006223,-0.00002387,0.00000880,0.00017328,0.000
 03390,0.00002331,0.00009801,-0.00008683,-0.00004405,0.00000738,0.00001
 326,-0.00000861,0.00000347,0.00001768,-0.00000023,0.00003972,0.0000332
 6,-0.00000028,-0.00010842,-0.00004735,0.00002154,-0.00005307,-0.000052
 51,0.00008795,-0.00011639,0.00002429,0.00005817,0.01914016,-0.06511384
 ,0.00341026,0.00921242,0.00237260,0.00524820,-0.02224391,0.00088709,-0
 .01673884,-0.00274727,-0.00563118,0.00011076,0.00173701,0.00251345,0.0
 0013720,-0.00967295,-0.00250317,0.00062736,-0.00240605,0.00259303,0.00
 200751,0.00259353,-0.00144541,-0.00131277,-0.00008802,0.00028488,0.000
 00742,-0.00015300,-0.00005840,0.00012974,-0.00017014,0.00009767,-0.000
 64032,-0.00046241,0.00104996,-0.00049986,-0.00066110,-0.00032665,-0.00
 043633,0.00701875,0.00800859,0.00751046,0.00071620,-0.00386319,-0.0063
 3935,0.02630394,-0.05007531,-0.01786386,0.00269047,0.00492350,-0.00050
 980,0.00004248,-0.00056106,0.00007498,-0.15228954,0.24551419,0.0055663
 7,0.00196193,0.00969533,0.00058863,-0.00164924,-0.00077866,0.00004453,
 -0.00028183,0.00051711,0.00016971,-0.00017175,-0.00016566,0.00024661,-
 0.00034111,0.00119533,0.00118333,0.00004742,-0.00296166,0.02591320,-0.
 04150879,-0.09715291,0.03109734,-0.02715275,-0.01470375,-0.01425724,0.
 01295728,0.01160644,0.00018495,-0.00013362,0.00025509,0.00006969,-0.00
 004854,-0.00002791,0.00004419,-0.00002397,0.00005089,-0.00010769,0.000
 08515,0.00001376,0.00188939,-0.00104358,0.00021298,0.00029966,-0.00017
 162,-0.00095553,-0.00355464,0.00225947,-0.00022378,-0.00151065,0.00229
 460,-0.00291266,-0.00048395,0.00030909,-0.00252042,-0.00180622,0.00134
 360,-0.00027996,0.00110697,-0.00073813,-0.00064289,-0.00007857,0.00003
 169,-0.00008875,0.00002108,-0.00005092,0.00036119,0.00017798,-0.000198
 29,-0.00057493,-0.00001136,0.00003347,-0.00011274,-0.00027969,0.000200
 69,-0.00023739,0.00009675,-0.00002314,0.00009741,-0.00011780,-0.000044
 99,0.00007841,0.00009307,-0.00001102,0.00010029,-0.00003204,-0.0000171
 2,0.00017704,-0.00002369,-0.00004849,-0.00023638,0.00014639,0.00006629
 ,-0.00003762,-0.00068195,0.00007554,-0.00012551,0.00003080,0.00003404,
 0.00008576,0.00002008,0.00002119,0.00005891,-0.00004162,-0.00000911,0.
 00007091,-0.00003472,-0.00000824,0.00002889,0.00032525,0.00002269,0.00
 063982,0.00027326,0.00000441,0.00008079,-0.00010433,0.00005214,-0.0000
 7601,0.00004678,-0.00000593,-0.00007950,-0.00014297,-0.00025390,-0.000
 14856,0.00002701,-0.00004358,0.00006747,0.00005560,0.00000462,0.000022
 37,0.00002615,-0.00001292,0.00001215,-0.00000465,-0.00000600,0.0000473
 5,-0.00002372,0.00001451,0.00001853,-0.00002848,-0.00001251,0.00001487
 ,0.00011434,0.00020217,0.00005844,0.00003743,0.00003657,0.00002109,-0.
 00001584,0.00006122,0.00006021,-0.06334829,-0.00336365,-0.14841648,-0.
 03697936,0.00151089,-0.01826189,-0.01608971,-0.00969821,-0.00390439,0.
 00052276,-0.00055857,0.00166274,-0.00030676,-0.00091772,-0.00176508,-0
 .00076162,-0.00043805,0.00043069,-0.00221600,0.00188869,0.00043713,0.0
 0106217,0.00064425,0.00119013,0.00000771,-0.00019825,-0.00012966,-0.00
 003451,-0.00002915,0.00004536,0.00003484,0.00003351,0.00004579,-0.0002
 6380,0.00002189,-0.00022601,0.00012179,0.00023484,0.00121549,0.0014947
 4,0.00472951,0.00329948,0.00101951,-0.00254027,-0.00336615,0.00131931,
 -0.01082053,0.00027405,0.00035976,-0.00019643,-0.00013211,-0.00003583,
 0.00004501,-0.00081292,0.06753856,0.07154355,0.26780821\\0.00000023,0.
 00000097,0.00000713,0.00000570,-0.00000416,-0.00000722,-0.00000382,0.0
 0000962,0.00000503,-0.00000302,0.00000284,-0.00001079,0.00000692,-0.00
 000837,-0.00000068,-0.00000508,0.00000637,-0.00000096,-0.00000559,0.00
 000516,0.00000620,0.00000249,-0.00000497,-0.00000510,0.00000064,-0.000
 00946,0.00000097,0.00000170,0.00000478,-0.00000207,0.00000238,0.000003
 18,-0.00000228,0.00000028,0.00000094,-0.00000056,-0.00000276,0.0000004
 0,-0.00000173,-0.00000040,-0.00000321,-0.00000269,-0.00000756,0.000005
 97,-0.00000245,0.00000580,0.00000292,-0.00000181,0.00000241,0.00000165
 ,0.00000075,-0.00000645,-0.00000091,-0.00000467,0.00000101,0.00000381,
 -0.00000314,-0.00000170,-0.00000417,0.00000030,0.00000235,0.00000384,-
 0.00000110,0.00000229,0.00000267,0.00000011,0.00000363,0.00000414,0.00
 000036,-0.00000450,-0.00000390,-0.00000153,-0.00000434,-0.00000387,0.0
 0000051,-0.00000331,-0.00000302,0.00000219,-0.00000141,-0.00000406,0.0
 0000276,0.00000672,0.00000044,-0.00000200,-0.00000214,-0.00000771,0.00
 000617,0.00002190,-0.00000440,-0.00000328,0.00000414,-0.00000096,-0.00
 000346,-0.00000109,-0.00000344,0.00000749,0.00000058,0.00001473,0.0000
 1153,-0.00000173,0.00000221,0.00000484,0.00000330,-0.00000506,0.000002
 41,-0.00000177,-0.00000641,0.00000601,-0.00000092,-0.00000034,-0.00000
 119,-0.00000018,-0.00000176,-0.00000060,-0.00000545,-0.00000359,0.0000
 0576,-0.00000331,-0.00000573,0.00000381,-0.00000099,-0.00000047,0.0000
 0899,-0.00000121,0.00000205,-0.00000534,0.00000291,0.00000086,0.000004
 29,-0.00000085,-0.00000015,-0.00000151,-0.00000030,-0.00000327,0.00000
 969,-0.00000006,-0.00000742,0.00000477,-0.00000034,-0.00000198,0.00000
 972,0.00000291,0.00000101,0.00000200,0.00000682,0.00000325,0.00000442,
 0.00000366,-0.00000063,0.00000326,0.00001008,0.00000164,0.00000698,-0.
 00000111,0.00000350,-0.00000238,-0.00000005,-0.00000392,-0.00001355,0.
 00000015,0.00000072,-0.00000072,-0.00000251,0.00000345,-0.00000158,-0.
 00000014,0.00000099,-0.00000123,-0.00000393,0.00000710,-0.00000118,0.0
 0000060,-0.00000061,-0.00000499,-0.00000128,0.00000009,-0.00000285,0.0
 0000108,0.00000405,-0.00000669,-0.00000189,0.00000143,-0.00000376,0.00
 000039,0.00000319,-0.00000643,-0.00000340,0.00000033,-0.00000607,-0.00
 000165,0.00000742,0.00000461,0.00000069,-0.00000235,-0.00001525,-0.000
 00177,0.00000201,-0.00000604,-0.00000250,-0.00000046,-0.00000352,-0.00
 000955,-0.00000451,0.00002045,-0.00000371,-0.00000450,-0.00001108\\\@


 NATURE REVEALS EVERY SECRET ONCE.
                    - RALPH WALDO EMERSON
 Job cpu time:       7 days 14 hours 54 minutes 59.2 seconds.
 Elapsed time:       0 days  7 hours 37 minutes 26.7 seconds.
 File lengths (MBytes):  RWF=  13876 Int=      0 D2E=      0 Chk=     92 Scr=      8
 Normal termination of Gaussian 16 at Sat Feb  8 21:45:33 2025.
