 Entering Gaussian System, Link 0=/sysapps/ubuntu-applications/gaussian-new/avx/g16//g16
 Input=i2-keto.in
 Output=i2-keto.log
 Initial command:
 /sysapps/ubuntu-applications/gaussian-new/avx/g16/l1.exe "/data/temp-scratch/selhajj1/7635110/Gau-537124.inp" -scrdir="/data/temp-scratch/selhajj1/7635110/"
 Entering Link 1 = /sysapps/ubuntu-applications/gaussian-new/avx/g16/l1.exe PID=    537126.
  
 Copyright (c) 1988,1990,1992,1993,1995,1998,2003,2009,2016,
            Gaussian, Inc.  All Rights Reserved.
  
 This is part of the Gaussian(R) 16 program.  It is based on
 the Gaussian(R) 09 system (copyright 2009, Gaussian, Inc.),
 the Gaussian(R) 03 system (copyright 2003, Gaussian, Inc.),
 the Gaussian(R) 98 system (copyright 1998, Gaussian, Inc.),
 the Gaussian(R) 94 system (copyright 1995, Gaussian, Inc.),
 the Gaussian 92(TM) system (copyright 1992, Gaussian, Inc.),
 the Gaussian 90(TM) system (copyright 1990, Gaussian, Inc.),
 the Gaussian 88(TM) system (copyright 1988, Gaussian, Inc.),
 the Gaussian 86(TM) system (copyright 1986, Carnegie Mellon
 University), and the Gaussian 82(TM) system (copyright 1983,
 Carnegie Mellon University). Gaussian is a federally registered
 trademark of Gaussian, Inc.
  
 This software contains proprietary and confidential information,
 including trade secrets, belonging to Gaussian, Inc.
  
 This software is provided under written license and may be
 used, copied, transmitted, or stored only in accord with that
 written license.
  
 The following legend is applicable only to US Government
 contracts under FAR:
  
                    RESTRICTED RIGHTS LEGEND
  
 Use, reproduction and disclosure by the US Government is
 subject to restrictions as set forth in subparagraphs (a)
 and (c) of the Commercial Computer Software - Restricted
 Rights clause in FAR 52.227-19.
  
 Gaussian, Inc.
 340 Quinnipiac St., Bldg. 40, Wallingford CT 06492
  
  
 ---------------------------------------------------------------
 Warning -- This program may not be used in any manner that
 competes with the business of Gaussian, Inc. or will provide
 assistance to any competitor of Gaussian, Inc.  The licensee
 of this program is prohibited from giving any competitor of
 Gaussian, Inc. access to this program.  By using this program,
 the user acknowledges that Gaussian, Inc. is engaged in the
 business of creating and licensing software in the field of
 computational chemistry and represents and warrants to the
 licensee that it is not a competitor of Gaussian, Inc. and that
 it will not use this program in any manner prohibited above.
 ---------------------------------------------------------------
  

 Cite this work as:
 Gaussian 16, Revision A.03,
 M. J. Frisch, G. W. Trucks, H. B. Schlegel, G. E. Scuseria, 
 M. A. Robb, J. R. Cheeseman, G. Scalmani, V. Barone, 
 G. A. Petersson, H. Nakatsuji, X. Li, M. Caricato, A. V. Marenich, 
 J. Bloino, B. G. Janesko, R. Gomperts, B. Mennucci, H. P. Hratchian, 
 J. V. Ortiz, A. F. Izmaylov, J. L. Sonnenberg, D. Williams-Young, 
 F. Ding, F. Lipparini, F. Egidi, J. Goings, B. Peng, A. Petrone, 
 T. Henderson, D. Ranasinghe, V. G. Zakrzewski, J. Gao, N. Rega, 
 G. Zheng, W. Liang, M. Hada, M. Ehara, K. Toyota, R. Fukuda, 
 J. Hasegawa, M. Ishida, T. Nakajima, Y. Honda, O. Kitao, H. Nakai, 
 T. Vreven, K. Throssell, J. A. Montgomery, Jr., J. E. Peralta, 
 F. Ogliaro, M. J. Bearpark, J. J. Heyd, E. N. Brothers, K. N. Kudin, 
 V. N. Staroverov, T. A. Keith, R. Kobayashi, J. Normand, 
 K. Raghavachari, A. P. Rendell, J. C. Burant, S. S. Iyengar, 
 J. Tomasi, M. Cossi, J. M. Millam, M. Klene, C. Adamo, R. Cammi, 
 J. W. Ochterski, R. L. Martin, K. Morokuma, O. Farkas, 
 J. B. Foresman, and D. J. Fox, Gaussian, Inc., Wallingford CT, 2016.
 
 ******************************************
 Gaussian 16:  ES64L-G16RevA.03 25-Dec-2016
                 5-Mar-2025 
 ******************************************
 %chk=i2-keto.chk
 %mem=616Gb
 %nprocshared=24
 Will use up to   24 processors via shared memory.
 -------------------------------------------------------------------
 #P MN15/gen scf=(maxcyc=500) freq scrf=(smd,solvent=DiChloroEthane)
 -------------------------------------------------------------------
 1/10=4,30=1,38=1/1,3;
 2/12=2,17=6,18=5,40=1/2;
 3/5=7,11=2,25=1,30=1,70=32201,71=2,72=10,74=-73,140=1/1,2,3;
 4//1;
 5/5=2,7=500,38=5,53=10,98=1/2;
 8/6=4,10=90,11=11/1;
 11/6=1,8=1,9=11,15=111,16=1/1,2,10;
 10/6=1/2;
 6/7=2,8=2,9=2,10=2,28=1/1;
 7/8=1,10=1,25=1/1,2,3,16;
 1/10=4,30=1/3;
 99//99;
 Leave Link    1 at Wed Mar  5 13:44:47 2025, MaxMem= 82678120448 cpu:               2.2 elap:               0.1
 (Enter /sysapps/ubuntu-applications/gaussian-new/avx/g16/l101.exe)
 ----
 freq
 ----
 Symbolic Z-matrix:
 Charge =  0 Multiplicity = 1
 C                    -5.68741   0.43949  -0.12773 
 C                    -6.37728   0.37439  -1.34661 
 C                    -7.64767   0.93764  -1.47494 
 C                    -8.24212   1.57372  -0.38272 
 C                    -7.56057   1.64651   0.83464 
 C                    -6.28889   1.08511   0.9628 
 C                    -1.82373   0.49243   0.50246 
 C                    -1.26727   0.82425  -0.76773 
 C                    -0.98397   0.02096   1.54121 
 H                    -5.90728  -0.12263  -2.20062 
 H                    -8.17193   0.88241  -2.43139 
 H                    -9.23556   2.01698  -0.48122 
 H                    -8.01871   2.1471    1.69037 
 H                    -5.76634   1.15526   1.91996 
 O                     0.26199  -0.21775   1.3914 
 O                    -0.0239    0.79625  -1.03042 
 O                     3.07484  -1.14859   0.93749 
 O                     2.74856  -0.11246  -1.78457 
 O                     0.79958   2.45688   1.01986 
 S                     1.62659   3.30289   0.12541 
 S                     3.75916  -0.25692   1.9212 
 S                     2.15207  -1.46298  -2.02254 
 O                     2.455     2.35701  -0.68788 
 O                     2.29789   4.44786   0.69087 
 O                     3.054     1.05126   1.80247 
 O                     4.02096  -0.77828   3.23818 
 O                     1.18472  -1.67566  -0.91624 
 O                     1.70857  -1.76371  -3.36355 
 C                     3.54478  -2.66375  -1.68544 
 C                     5.39784   0.06071   1.14994 
 C                     0.41373   4.00338  -1.11334 
 F                     3.16314  -3.53626  -0.76951 
 F                     4.62178  -2.02608  -1.27259 
 F                     3.82702  -3.30903  -2.8038 
 F                     5.21708   0.55954  -0.05987 
 F                     6.0731   -1.07117   1.06887 
 F                     6.07037   0.92472   1.88823 
 F                    -0.82274   3.80586  -0.68036 
 F                     0.55916   3.42243  -2.28916 
 F                     0.62314   5.30072  -1.24135 
 C                    -4.30102  -0.17022  -0.02924 
 H                    -3.94356  -0.33931  -1.05427 
 C                    -4.40647  -1.62919   0.55265 
 C                    -5.33359  -2.4302   -0.27394 
 C                    -4.90172  -1.59098   1.93797 
 C                    -1.22389  -3.48543   1.36341 
 C                    -1.41509  -2.87657  -0.94389 
 C                    -0.67462  -3.48045   0.09874 
 H                    -0.72468  -3.93589   2.22133 
 H                    -1.03571  -2.84181  -1.96657 
 H                     0.30058  -3.91848  -0.11184 
 N                    -6.04825  -3.04878  -0.94005 
 N                    -5.28301  -1.50434   3.02669 
 N                    -3.07418  -2.32162   0.48381 
 N                    -2.58818  -2.32057  -0.7448 
 Sc                    1.66253   0.4347    0.08682 
 C                    -3.30516   0.73144   0.73199 
 H                    -3.55835   1.75843   0.42483 
 H                    -3.54018   0.70537   1.80497 
 C                    -2.47271  -2.88173   1.53551 
 H                    -2.98519  -2.8494    2.4981 
 C                    -2.13099   1.23705  -1.9275 
 H                    -2.39679   0.33232  -2.50147 
 H                    -3.0589    1.74723  -1.64002 
 H                    -1.5392    1.8807   -2.58992 
 C                    -1.47099  -0.20704   2.94705 
 H                    -2.53611  -0.43809   3.05631 
 H                    -0.86329  -0.99852   3.40582 
 H                    -1.27486   0.72092   3.51123 
 
 ITRead=  0  0  0  0  0  0  0  0  0  0  0  0  0  0  0  0  0  0  0  0
 ITRead=  0  0  0  0  0  0  0  0  0  0  0  0  0  0  0  0  0  0  0  0
 ITRead=  0  0  0  0  0  0  0  0  0  0  0  0  0  0  0  0  0  0  0  0
 ITRead=  0  0  0  0  0  0  0  0  0
 MicOpt= -1 -1 -1 -1 -1 -1 -1 -1 -1 -1 -1 -1 -1 -1 -1 -1 -1 -1 -1 -1
 MicOpt= -1 -1 -1 -1 -1 -1 -1 -1 -1 -1 -1 -1 -1 -1 -1 -1 -1 -1 -1 -1
 MicOpt= -1 -1 -1 -1 -1 -1 -1 -1 -1 -1 -1 -1 -1 -1 -1 -1 -1 -1 -1 -1
 MicOpt= -1 -1 -1 -1 -1 -1 -1 -1 -1
 NAtoms=     69 NQM=       69 NQMF=       0 NMMI=      0 NMMIF=      0
                NMic=       0 NMicF=      0.
                    Isotopes and Nuclear Properties:
 (Nuclear quadrupole moments (NQMom) in fm**2, nuclear magnetic moments (NMagM)
  in nuclear magnetons)

  Atom         1           2           3           4           5           6           7           8           9          10
 IAtWgt=          12          12          12          12          12          12          12          12          12           1
 AtmWgt=  12.0000000  12.0000000  12.0000000  12.0000000  12.0000000  12.0000000  12.0000000  12.0000000  12.0000000   1.0078250
 NucSpn=           0           0           0           0           0           0           0           0           0           1
 AtZEff=  -0.0000000  -0.0000000  -0.0000000  -0.0000000  -0.0000000  -0.0000000  -0.0000000  -0.0000000  -0.0000000  -0.0000000
 NQMom=    0.0000000   0.0000000   0.0000000   0.0000000   0.0000000   0.0000000   0.0000000   0.0000000   0.0000000   0.0000000
 NMagM=    0.0000000   0.0000000   0.0000000   0.0000000   0.0000000   0.0000000   0.0000000   0.0000000   0.0000000   2.7928460
 AtZNuc=   6.0000000   6.0000000   6.0000000   6.0000000   6.0000000   6.0000000   6.0000000   6.0000000   6.0000000   1.0000000

  Atom        11          12          13          14          15          16          17          18          19          20
 IAtWgt=           1           1           1           1          16          16          16          16          16          32
 AtmWgt=   1.0078250   1.0078250   1.0078250   1.0078250  15.9949146  15.9949146  15.9949146  15.9949146  15.9949146  31.9720718
 NucSpn=           1           1           1           1           0           0           0           0           0           0
 AtZEff=  -0.0000000  -0.0000000  -0.0000000  -0.0000000  -0.0000000  -0.0000000  -0.0000000  -0.0000000  -0.0000000  -0.0000000
 NQMom=    0.0000000   0.0000000   0.0000000   0.0000000   0.0000000   0.0000000   0.0000000   0.0000000   0.0000000   0.0000000
 NMagM=    2.7928460   2.7928460   2.7928460   2.7928460   0.0000000   0.0000000   0.0000000   0.0000000   0.0000000   0.0000000
 AtZNuc=   1.0000000   1.0000000   1.0000000   1.0000000   8.0000000   8.0000000   8.0000000   8.0000000   8.0000000  16.0000000

  Atom        21          22          23          24          25          26          27          28          29          30
 IAtWgt=          32          32          16          16          16          16          16          16          12          12
 AtmWgt=  31.9720718  31.9720718  15.9949146  15.9949146  15.9949146  15.9949146  15.9949146  15.9949146  12.0000000  12.0000000
 NucSpn=           0           0           0           0           0           0           0           0           0           0
 AtZEff=  -0.0000000  -0.0000000  -0.0000000  -0.0000000  -0.0000000  -0.0000000  -0.0000000  -0.0000000  -0.0000000  -0.0000000
 NQMom=    0.0000000   0.0000000   0.0000000   0.0000000   0.0000000   0.0000000   0.0000000   0.0000000   0.0000000   0.0000000
 NMagM=    0.0000000   0.0000000   0.0000000   0.0000000   0.0000000   0.0000000   0.0000000   0.0000000   0.0000000   0.0000000
 AtZNuc=  16.0000000  16.0000000   8.0000000   8.0000000   8.0000000   8.0000000   8.0000000   8.0000000   6.0000000   6.0000000

  Atom        31          32          33          34          35          36          37          38          39          40
 IAtWgt=          12          19          19          19          19          19          19          19          19          19
 AtmWgt=  12.0000000  18.9984032  18.9984032  18.9984032  18.9984032  18.9984032  18.9984032  18.9984032  18.9984032  18.9984032
 NucSpn=           0           1           1           1           1           1           1           1           1           1
 AtZEff=  -0.0000000  -0.0000000  -0.0000000  -0.0000000  -0.0000000  -0.0000000  -0.0000000  -0.0000000  -0.0000000  -0.0000000
 NQMom=    0.0000000   0.0000000   0.0000000   0.0000000   0.0000000   0.0000000   0.0000000   0.0000000   0.0000000   0.0000000
 NMagM=    0.0000000   2.6288670   2.6288670   2.6288670   2.6288670   2.6288670   2.6288670   2.6288670   2.6288670   2.6288670
 AtZNuc=   6.0000000   9.0000000   9.0000000   9.0000000   9.0000000   9.0000000   9.0000000   9.0000000   9.0000000   9.0000000

  Atom        41          42          43          44          45          46          47          48          49          50
 IAtWgt=          12           1          12          12          12          12          12          12           1           1
 AtmWgt=  12.0000000   1.0078250  12.0000000  12.0000000  12.0000000  12.0000000  12.0000000  12.0000000   1.0078250   1.0078250
 NucSpn=           0           1           0           0           0           0           0           0           1           1
 AtZEff=  -0.0000000  -0.0000000  -0.0000000  -0.0000000  -0.0000000  -0.0000000  -0.0000000  -0.0000000  -0.0000000  -0.0000000
 NQMom=    0.0000000   0.0000000   0.0000000   0.0000000   0.0000000   0.0000000   0.0000000   0.0000000   0.0000000   0.0000000
 NMagM=    0.0000000   2.7928460   0.0000000   0.0000000   0.0000000   0.0000000   0.0000000   0.0000000   2.7928460   2.7928460
 AtZNuc=   6.0000000   1.0000000   6.0000000   6.0000000   6.0000000   6.0000000   6.0000000   6.0000000   1.0000000   1.0000000

  Atom        51          52          53          54          55          56          57          58          59          60
 IAtWgt=           1          14          14          14          14          45          12           1           1          12
 AtmWgt=   1.0078250  14.0030740  14.0030740  14.0030740  14.0030740  44.9559136  12.0000000   1.0078250   1.0078250  12.0000000
 NucSpn=           1           2           2           2           2           7           0           1           1           0
 AtZEff=  -0.0000000  -0.0000000  -0.0000000  -0.0000000  -0.0000000  -0.0000000  -0.0000000  -0.0000000  -0.0000000  -0.0000000
 NQMom=    0.0000000   2.0440000   2.0440000   2.0440000   2.0440000 -22.0000000   0.0000000   0.0000000   0.0000000   0.0000000
 NMagM=    2.7928460   0.4037610   0.4037610   0.4037610   0.4037610   4.7564830   0.0000000   2.7928460   2.7928460   0.0000000
 AtZNuc=   1.0000000   7.0000000   7.0000000   7.0000000   7.0000000  21.0000000   6.0000000   1.0000000   1.0000000   6.0000000

  Atom        61          62          63          64          65          66          67          68          69
 IAtWgt=           1          12           1           1           1          12           1           1           1
 AtmWgt=   1.0078250  12.0000000   1.0078250   1.0078250   1.0078250  12.0000000   1.0078250   1.0078250   1.0078250
 NucSpn=           1           0           1           1           1           0           1           1           1
 AtZEff=  -0.0000000  -0.0000000  -0.0000000  -0.0000000  -0.0000000  -0.0000000  -0.0000000  -0.0000000  -0.0000000
 NQMom=    0.0000000   0.0000000   0.0000000   0.0000000   0.0000000   0.0000000   0.0000000   0.0000000   0.0000000
 NMagM=    2.7928460   0.0000000   2.7928460   2.7928460   2.7928460   0.0000000   2.7928460   2.7928460   2.7928460
 AtZNuc=   1.0000000   6.0000000   1.0000000   1.0000000   1.0000000   6.0000000   1.0000000   1.0000000   1.0000000
 Leave Link  101 at Wed Mar  5 13:44:47 2025, MaxMem= 82678120448 cpu:               4.7 elap:               0.2
 (Enter /sysapps/ubuntu-applications/gaussian-new/avx/g16/l103.exe)

 GradGradGradGradGradGradGradGradGradGradGradGradGradGradGradGradGradGrad
 Berny optimization.
 Initialization pass.
 Trust Radius=3.00D-01 FncErr=1.00D-07 GrdErr=1.00D-07 EigMax=2.50D+02 EigMin=1.00D-04
 Number of steps in this run=      2 maximum allowed number of steps=      2.
 GradGradGradGradGradGradGradGradGradGradGradGradGradGradGradGradGradGrad

 Leave Link  103 at Wed Mar  5 13:44:47 2025, MaxMem= 82678120448 cpu:               0.7 elap:               0.0
 (Enter /sysapps/ubuntu-applications/gaussian-new/avx/g16/l202.exe)
 Stoichiometry    C23H18F9N4O11S3Sc
 Framework group  C1[X(C23H18F9N4O11S3Sc)]
 Deg. of freedom   201
 Full point group                 C1      NOp   1
 Largest Abelian subgroup         C1      NOp   1
 Largest concise Abelian subgroup C1      NOp   1
                         Standard orientation:                         
 ---------------------------------------------------------------------
 Center     Atomic      Atomic             Coordinates (Angstroms)
 Number     Number       Type             X           Y           Z
 ---------------------------------------------------------------------
      1          6           0       -5.687408    0.439492   -0.127734
      2          6           0       -6.377278    0.374392   -1.346608
      3          6           0       -7.647673    0.937637   -1.474939
      4          6           0       -8.242119    1.573721   -0.382716
      5          6           0       -7.560572    1.646507    0.834635
      6          6           0       -6.288888    1.085113    0.962798
      7          6           0       -1.823730    0.492426    0.502457
      8          6           0       -1.267267    0.824250   -0.767725
      9          6           0       -0.983974    0.020956    1.541208
     10          1           0       -5.907283   -0.122630   -2.200623
     11          1           0       -8.171934    0.882405   -2.431387
     12          1           0       -9.235563    2.016976   -0.481215
     13          1           0       -8.018712    2.147101    1.690369
     14          1           0       -5.766335    1.155263    1.919959
     15          8           0        0.261991   -0.217750    1.391401
     16          8           0       -0.023904    0.796253   -1.030421
     17          8           0        3.074845   -1.148587    0.937488
     18          8           0        2.748564   -0.112460   -1.784567
     19          8           0        0.799579    2.456876    1.019860
     20         16           0        1.626592    3.302890    0.125406
     21         16           0        3.759155   -0.256917    1.921198
     22         16           0        2.152068   -1.462976   -2.022544
     23          8           0        2.454999    2.357005   -0.687884
     24          8           0        2.297890    4.447855    0.690865
     25          8           0        3.054001    1.051255    1.802468
     26          8           0        4.020956   -0.778282    3.238182
     27          8           0        1.184715   -1.675656   -0.916244
     28          8           0        1.708567   -1.763705   -3.363554
     29          6           0        3.544779   -2.663751   -1.685439
     30          6           0        5.397840    0.060712    1.149943
     31          6           0        0.413729    4.003376   -1.113343
     32          9           0        3.163140   -3.536260   -0.769508
     33          9           0        4.621776   -2.026084   -1.272586
     34          9           0        3.827019   -3.309034   -2.803798
     35          9           0        5.217078    0.559535   -0.059873
     36          9           0        6.073096   -1.071166    1.068874
     37          9           0        6.070374    0.924721    1.888233
     38          9           0       -0.822740    3.805857   -0.680361
     39          9           0        0.559161    3.422430   -2.289164
     40          9           0        0.623142    5.300715   -1.241354
     41          6           0       -4.301020   -0.170220   -0.029241
     42          1           0       -3.943559   -0.339306   -1.054266
     43          6           0       -4.406474   -1.629185    0.552647
     44          6           0       -5.333588   -2.430195   -0.273944
     45          6           0       -4.901721   -1.590982    1.937967
     46          6           0       -1.223894   -3.485426    1.363411
     47          6           0       -1.415088   -2.876572   -0.943887
     48          6           0       -0.674617   -3.480447    0.098737
     49          1           0       -0.724679   -3.935885    2.221330
     50          1           0       -1.035707   -2.841807   -1.966573
     51          1           0        0.300580   -3.918479   -0.111838
     52          7           0       -6.048252   -3.048782   -0.940049
     53          7           0       -5.283010   -1.504339    3.026687
     54          7           0       -3.074177   -2.321621    0.483814
     55          7           0       -2.588176   -2.320570   -0.744804
     56         21           0        1.662534    0.434698    0.086824
     57          6           0       -3.305160    0.731441    0.731988
     58          1           0       -3.558349    1.758431    0.424829
     59          1           0       -3.540183    0.705366    1.804973
     60          6           0       -2.472711   -2.881730    1.535509
     61          1           0       -2.985185   -2.849400    2.498098
     62          6           0       -2.130993    1.237048   -1.927497
     63          1           0       -2.396785    0.332322   -2.501470
     64          1           0       -3.058896    1.747229   -1.640020
     65          1           0       -1.539202    1.880695   -2.589919
     66          6           0       -1.470992   -0.207041    2.947053
     67          1           0       -2.536110   -0.438089    3.056308
     68          1           0       -0.863291   -0.998521    3.405821
     69          1           0       -1.274856    0.720919    3.511233
 ---------------------------------------------------------------------
 Rotational constants (GHZ):           0.0842473           0.0374372           0.0322109
 Leave Link  202 at Wed Mar  5 13:44:47 2025, MaxMem= 82678120448 cpu:               0.5 elap:               0.0
 (Enter /sysapps/ubuntu-applications/gaussian-new/avx/g16/l301.exe)
 General basis read from cards:  (5D, 7F)
 Centers:      10     11     12     13     14     42     49     50     51     58
 Centers:      59     61     63     64     65     67     68     69
 S 3 1.00
     Exponent=  1.3010701000D+01 Coefficients=  1.9682158000D-02
     Exponent=  1.9622572000D+00 Coefficients=  1.3796524000D-01
     Exponent=  4.4453796000D-01 Coefficients=  4.7831935000D-01
 S 1 1.00
     Exponent=  1.2194962000D-01 Coefficients=  1.0000000000D+00
 P 1 1.00
     Exponent=  8.0000000000D-01 Coefficients=  1.0000000000D+00
 ****
 Centers:       1      2      3      4      5      6      7      8      9     29
 Centers:      30     31     41     43     44     45     46     47     48     57
 Centers:      60     62     66
 S 5 1.00
     Exponent=  1.2384016938D+03 Coefficients=  5.4568832082D-03
     Exponent=  1.8629004992D+02 Coefficients=  4.0638409211D-02
     Exponent=  4.2251176346D+01 Coefficients=  1.8025593888D-01
     Exponent=  1.1676557932D+01 Coefficients=  4.6315121755D-01
     Exponent=  3.5930506482D+00 Coefficients=  4.4087173314D-01
 S 1 1.00
     Exponent=  4.0245147363D-01 Coefficients=  1.0000000000D+00
 S 1 1.00
     Exponent=  1.3090182668D-01 Coefficients=  1.0000000000D+00
 P 3 1.00
     Exponent=  9.4680970621D+00 Coefficients=  3.8387871728D-02
     Exponent=  2.0103545142D+00 Coefficients=  2.1117025112D-01
     Exponent=  5.4771004707D-01 Coefficients=  5.1328172114D-01
 P 1 1.00
     Exponent=  1.5268613795D-01 Coefficients=  1.0000000000D+00
 D 1 1.00
     Exponent=  8.0000000000D-01 Coefficients=  1.0000000000D+00
 ****
 Centers:      52     53     54     55
 S 5 1.00
     Exponent=  1.7128415853D+03 Coefficients= -5.3934125305D-03
     Exponent=  2.5764812677D+02 Coefficients= -4.0221581118D-02
     Exponent=  5.8458245853D+01 Coefficients= -1.7931144990D-01
     Exponent=  1.6198367905D+01 Coefficients= -4.6376317823D-01
     Exponent=  5.0052600809D+00 Coefficients= -4.4171422662D-01
 S 1 1.00
     Exponent=  5.8731856571D-01 Coefficients=  1.0000000000D+00
 S 1 1.00
     Exponent=  1.8764592253D-01 Coefficients=  1.0000000000D+00
 P 3 1.00
     Exponent=  1.3571470233D+01 Coefficients= -4.0072398852D-02
     Exponent=  2.9257372874D+00 Coefficients= -2.1807045028D-01
     Exponent=  7.9927750754D-01 Coefficients= -5.1294466049D-01
 P 1 1.00
     Exponent=  2.1954348034D-01 Coefficients=  1.0000000000D+00
 D 1 1.00
     Exponent=  1.0000000000D+00 Coefficients=  1.0000000000D+00
 ****
 Centers:      15     16     17     18     19     23     24     25     26     27
 Centers:      28
 S 5 1.00
     Exponent=  2.2661767785D+03 Coefficients= -5.3431809926D-03
     Exponent=  3.4087010191D+02 Coefficients= -3.9890039230D-02
     Exponent=  7.7363135167D+01 Coefficients= -1.7853911985D-01
     Exponent=  2.1479644940D+01 Coefficients= -4.6427684959D-01
     Exponent=  6.6589433124D+00 Coefficients= -4.4309745172D-01
 S 1 1.00
     Exponent=  8.0975975668D-01 Coefficients=  1.0000000000D+00
 S 1 1.00
     Exponent=  2.5530772234D-01 Coefficients=  1.0000000000D+00
 P 3 1.00
     Exponent=  1.7721504317D+01 Coefficients=  4.3394573193D-02
     Exponent=  3.8635505440D+00 Coefficients=  2.3094120765D-01
     Exponent=  1.0480920883D+00 Coefficients=  5.1375311064D-01
 P 1 1.00
     Exponent=  2.7641544411D-01 Coefficients=  1.0000000000D+00
 D 1 1.00
     Exponent=  1.2000000000D+00 Coefficients=  1.0000000000D+00
 ****
 Centers:      32     33     34     35     36     37     38     39     40
 S 5 1.00
     Exponent=  2.8948325990D+03 Coefficients= -5.3408255515D-03
     Exponent=  4.3541939120D+02 Coefficients= -3.9904258866D-02
     Exponent=  9.8843328866D+01 Coefficients= -1.7912768038D-01
     Exponent=  2.7485198001D+01 Coefficients= -4.6758090825D-01
     Exponent=  8.5405498171D+00 Coefficients= -4.4653131020D-01
 S 1 1.00
     Exponent=  1.0654578038D+00 Coefficients=  1.0000000000D+00
 S 1 1.00
     Exponent=  3.3247346748D-01 Coefficients=  1.0000000000D+00
 P 3 1.00
     Exponent=  2.2696633924D+01 Coefficients= -4.5212874436D-02
     Exponent=  4.9872339257D+00 Coefficients= -2.3754317067D-01
     Exponent=  1.3491613954D+00 Coefficients= -5.1287353587D-01
 P 1 1.00
     Exponent=  3.4829881977D-01 Coefficients=  1.0000000000D+00
 D 1 1.00
     Exponent=  1.4000000000D+00 Coefficients=  1.0000000000D+00
 ****
 Centers:      20     21     22
 S 5 1.00
     Exponent=  9.1849303010D+03 Coefficients= -2.2294387756D-03
     Exponent=  1.3815105503D+03 Coefficients= -1.6683029937D-02
     Exponent=  3.1387147580D+02 Coefficients= -7.5262436116D-02
     Exponent=  8.8053870623D+01 Coefficients= -1.9376827038D-01
     Exponent=  2.7039914905D+01 Coefficients= -1.7718020803D-01
 S 3 1.00
     Exponent=  4.5648731303D+01 Coefficients= -1.0736062573D-01
     Exponent=  4.9664522326D+00 Coefficients=  6.5066293018D-01
     Exponent=  2.0116242047D+00 Coefficients=  5.9712155354D-01
 S 1 1.00
     Exponent=  3.5661077013D-01 Coefficients=  1.0000000000D+00
 S 1 1.00
     Exponent=  1.3507221477D-01 Coefficients=  1.0000000000D+00
 P 5 1.00
     Exponent=  2.6198233439D+02 Coefficients= -9.2729929822D-03
     Exponent=  6.1306894736D+01 Coefficients= -6.6547669241D-02
     Exponent=  1.9103729887D+01 Coefficients= -2.4828595903D-01
     Exponent=  6.6567720378D+00 Coefficients= -4.8703847402D-01
     Exponent=  2.3959635161D+00 Coefficients= -3.9337850312D-01
 P 1 1.00
     Exponent=  6.1776161679D-01 Coefficients=  1.0000000000D+00
 P 1 1.00
     Exponent=  1.6993376871D-01 Coefficients=  1.0000000000D+00
 D 1 1.00
     Exponent=  5.5000000000D-01 Coefficients=  1.0000000000D+00
 ****
 Centers:      56
 S 8 1.00
     Exponent=  1.9161291874D+05 Coefficients=  2.3076475942D-04
     Exponent=  2.8723850363D+04 Coefficients=  1.7890329946D-03
     Exponent=  6.5370116490D+03 Coefficients=  9.2990401140D-03
     Exponent=  1.8503097171D+03 Coefficients=  3.7739438011D-02
     Exponent=  6.0238855156D+02 Coefficients=  1.2227148359D-01
     Exponent=  2.1617324766D+02 Coefficients=  2.8814821470D-01
     Exponent=  8.3712517880D+01 Coefficients=  4.0517543099D-01
     Exponent=  3.2908707189D+01 Coefficients=  2.0566019623D-01
 S 4 1.00
     Exponent=  2.1134393234D+02 Coefficients= -2.4527991462D-02
     Exponent=  6.5128920139D+01 Coefficients= -1.1570158142D-01
     Exponent=  1.0034311535D+01 Coefficients=  5.5995283317D-01
     Exponent=  4.1596884597D+00 Coefficients=  5.6087765073D-01
 S 2 1.00
     Exponent=  6.0009041613D+00 Coefficients= -2.2840494325D-01
     Exponent=  9.8255784150D-01 Coefficients=  7.1948970378D-01
 S 1 1.00
     Exponent=  4.2483192773D-01 Coefficients=  1.0000000000D+00
 S 1 1.00
     Exponent=  7.7185462096D-02 Coefficients=  1.0000000000D+00
 S 1 1.00
     Exponent=  3.0147219702D-02 Coefficients=  1.0000000000D+00
 P 6 1.00
     Exponent=  9.4734122823D+02 Coefficients=  2.4737208744D-03
     Exponent=  2.2409699732D+02 Coefficients=  1.9742967060D-02
     Exponent=  7.1560334882D+01 Coefficients=  9.0357147549D-02
     Exponent=  2.6444824490D+01 Coefficients=  2.5201602503D-01
     Exponent=  1.0393798285D+01 Coefficients=  3.9675535929D-01
     Exponent=  4.1606304559D+00 Coefficients=  2.3208624517D-01
 P 3 1.00
     Exponent=  1.5565737135D+01 Coefficients= -2.7129423974D-02
     Exponent=  2.1121544865D+00 Coefficients=  5.5109256629D-01
     Exponent=  8.4184709021D-01 Coefficients=  1.0090635806D+00
 P 1 1.00
     Exponent=  3.2297542652D-01 Coefficients=  1.0000000000D+00
 P 1 1.00
     Exponent=  8.9748000000D-02 Coefficients=  1.0000000000D+00
 D 4 1.00
     Exponent=  3.0989390993D+01 Coefficients=  1.1902837431D-02
     Exponent=  8.6905465069D+00 Coefficients=  6.7655856850D-02
     Exponent=  2.9520256337D+00 Coefficients=  2.1332539722D-01
     Exponent=  1.0761910745D+00 Coefficients=  3.8391075578D-01
 D 1 1.00
     Exponent=  3.8338915095D-01 Coefficients=  4.3354716259D-01
 D 1 1.00
     Exponent=  1.2534686113D-01 Coefficients=  2.4509263822D-01
 D 1 1.00
     Exponent=  4.1000000000D-02 Coefficients=  1.0000000000D+00
 F 1 1.00
     Exponent=  3.4500000000D-01 Coefficients=  1.0000000000D+00
 ****
 Ernie: Thresh=  0.10000D-02 Tol=  0.10000D-05 Strict=F.
 There are   904 symmetry adapted cartesian basis functions of A   symmetry.
 There are   847 symmetry adapted basis functions of A   symmetry.
   847 basis functions,  1514 primitive gaussians,   904 cartesian basis functions
   211 alpha electrons      211 beta electrons
       nuclear repulsion energy      9882.4788935386 Hartrees.
 IExCor= 7252 DFT=T Ex+Corr=MN15 ExCW=0 ScaHFX=  0.440000
 ScaDFX=  1.000000  1.000000  1.000000  1.000000 ScalE2=  1.000000  1.000000
 IRadAn=      5 IRanWt=     -1 IRanGd=            0 ICorTp=0 IEmpDi=  4
 NAtoms=   69 NActive=   69 NUniq=   69 SFac= 1.00D+00 NAtFMM=   60 NAOKFM=T Big=T
 Integral buffers will be    131072 words long.
 Raffenetti 2 integral format.
 Two-electron integral symmetry is turned on.
 Force inversion solution in PCM.
 ------------------------------------------------------------------------------
 Polarizable Continuum Model (PCM)
 =================================
 Model                : PCM.
 Atomic radii         : SMD-Coulomb.
 Polarization charges : Total charges.
 Charge compensation  : None.
 Solution method      : Matrix inversion.
 Cavity type          : VdW (van der Waals Surface) (Alpha=1.000).
 Cavity algorithm     : GePol (No added spheres)
                        Default sphere list used, NSphG=   69.
                        Lebedev-Laikov grids with approx.  5.0 points / Ang**2.
                        Smoothing algorithm: York/Karplus (Gamma=1.0000).
                        Polarization charges: spherical gaussians, with
                                              point-specific exponents (IZeta= 3).
                        Self-potential: point-specific (ISelfS= 7).
                        Self-field    : sphere-specific E.n sum rule (ISelfD= 2).
 1st derivatives      : Analytical E(r).r(x)/FMM algorithm (CHGder, D1EAlg=3).
                        Cavity 1st derivative terms included.
 2nd derivatives      : Analytical E(r).r(xy)/FMM algorithm (CHGder, D2EAlg=3).
                        Cavity 2nd derivative terms included.
 Solvent              : DiChloroEthane, Eps=  10.125000 Eps(inf)=   2.087447
 ------------------------------------------------------------------------------
 GePol: Number of generator spheres                  =      69
 GePol: Total number of spheres                      =      69
 GePol: Number of exposed spheres                    =      68 ( 98.55%)
 GePol: Number of points                             =    4917
 GePol: Average weight of points                     =       0.13
 GePol: Minimum weight of points                     =   0.57D-10
 GePol: Maximum weight of points                     =    0.21501
 GePol: Number of points with low weight             =     316
 GePol: Fraction of low-weight points (<1% of avg)   =       6.43%
 GePol: Cavity surface area                          =    621.842 Ang**2
 GePol: Cavity volume                                =    741.479 Ang**3
 ------------------------------------------------------------------------------
 Atomic radii for non-electrostatic terms: SMD-CDS.
 ------------------------------------------------------------------------------
 PCM non-electrostatic energy =         0.0031702775 Hartrees.
 Nuclear repulsion after PCM non-electrostatic terms =     9882.4820638161 Hartrees.
 Leave Link  301 at Wed Mar  5 13:44:48 2025, MaxMem= 82678120448 cpu:               3.8 elap:               0.2
 (Enter /sysapps/ubuntu-applications/gaussian-new/avx/g16/l302.exe)
 NPDir=0 NMtPBC=     1 NCelOv=     1 NCel=       1 NClECP=     1 NCelD=      1
         NCelK=      1 NCelE2=     1 NClLst=     1 CellRange=     0.0.
 One-electron integrals computed using PRISM.
 One-electron integral symmetry used in STVInt
 NBasis=   847 RedAO= T EigKep=  2.33D-04  NBF=   847
 NBsUse=   847 1.00D-06 EigRej= -1.00D+00 NBFU=   847
 Precomputing XC quadrature grid using
 IXCGrd= 4 IRadAn=           5 IRanWt=          -1 IRanGd=           0 AccXCQ= 0.00D+00.
 Generated NRdTot=       0 NPtTot=           0 NUsed=           0 NTot=          32
 NSgBfM=   861   857   860   860   861 MxSgAt=    69 MxSgA2=    69.
 Leave Link  302 at Wed Mar  5 13:44:49 2025, MaxMem= 82678120448 cpu:              38.0 elap:               1.6
 (Enter /sysapps/ubuntu-applications/gaussian-new/avx/g16/l303.exe)
 DipDrv:  MaxL=1.
 Leave Link  303 at Wed Mar  5 13:44:49 2025, MaxMem= 82678120448 cpu:               4.5 elap:               0.2
 (Enter /sysapps/ubuntu-applications/gaussian-new/avx/g16/l401.exe)
 ExpMin= 3.01D-02 ExpMax= 1.92D+05 ExpMxC= 1.85D+03 IAcc=3 IRadAn=         5 AccDes= 0.00D+00
 Harris functional with IExCor= 1009 and IRadAn=       5 diagonalized for initial guess.
 HarFok:  IExCor= 1009 AccDes= 0.00D+00 IRadAn=         5 IDoV= 1 UseB2=F ITyADJ=14
 ICtDFT=  3500011 ScaDFX=  1.000000  1.000000  1.000000  1.000000
 FoFCou: FMM=F IPFlag=           0 FMFlag=      100000 FMFlg1=        2001
         NFxFlg=           0 DoJE=T BraDBF=F KetDBF=T FulRan=T
         wScrn=  0.000000 ICntrl=       500 IOpCl=  0 I1Cent=   200000004 NGrid=           0
         NMat0=    1 NMatS0=      1 NMatT0=    0 NMatD0=    1 NMtDS0=    0 NMtDT0=    0
 Petite list used in FoFCou.
 Harris En= -4781.94643568877    
 JPrj=0 DoOrth=F DoCkMO=F.
 Leave Link  401 at Wed Mar  5 13:44:55 2025, MaxMem= 82678120448 cpu:             128.1 elap:               5.4
 (Enter /sysapps/ubuntu-applications/gaussian-new/avx/g16/l502.exe)
 Integral symmetry usage will be decided dynamically.
 Closed shell SCF:
 Using DIIS extrapolation, IDIIS=  1040.
 NGot= 82678120448 LenX= 82676454397 LenY= 82675636277
 Requested convergence on RMS density matrix=1.00D-08 within 500 cycles.
 Requested convergence on MAX density matrix=1.00D-06.
 Requested convergence on             energy=1.00D-06.
 No special actions if energy rises.
 Fock matrices will be formed incrementally for  20 cycles.

 Cycle   1  Pass 1  IDiag  1:
 FoFJK:  IHMeth= 1 ICntrl=       0 DoSepK=F KAlg= 0 I1Cent=           0 FoldK=F
 IRaf= 820000000 NMat=       1 IRICut=       1 DoRegI=T DoRafI=F ISym2E= 0 IDoP0=0 IntGTp=1.
 FoFCou: FMM=T IPFlag=           0 FMFlag=      100000 FMFlg1=        2001
         NFxFlg=           0 DoJE=F BraDBF=F KetDBF=F FulRan=T
         wScrn=  0.000000 ICntrl=         0 IOpCl=  0 I1Cent=           0 NGrid=           0
         NMat0=    1 NMatS0=      1 NMatT0=    0 NMatD0=    1 NMtDS0=    0 NMtDT0=    0
 Symmetry not used in FoFCou.
 FMM levels:  10  Number of levels for PrismC:   9
 Inv3:  Mode=1 IEnd=    72530667.
 Iteration    1 A*A^-1 deviation from unit magnitude is 9.55D-15 for   4909.
 Iteration    1 A*A^-1 deviation from orthogonality  is 5.51D-15 for   4908   4315.
 Iteration    1 A^-1*A deviation from unit magnitude is 9.77D-15 for   4909.
 Iteration    1 A^-1*A deviation from orthogonality  is 1.52D-14 for   2783   2744.
 E= -4780.20248687198    
 DIIS: error= 3.00D-02 at cycle   1 NSaved=   1.
 NSaved= 1 IEnMin= 1 EnMin= -4780.20248687198     IErMin= 1 ErrMin= 3.00D-02
 ErrMax= 3.00D-02  0.00D+00 EMaxC= 1.00D-01 BMatC= 1.99D+00 BMatP= 1.99D+00
 IDIUse=3 WtCom= 7.00D-01 WtEn= 3.00D-01
 Coeff-Com:  0.100D+01
 Coeff-En:   0.100D+01
 Coeff:      0.100D+01
 Gap=     0.252 Goal=   None    Shift=    0.000
 GapD=    0.252 DampG=1.000 DampE=0.250 DampFc=0.2500 IDamp=-1.
 Damping current iteration by 2.50D-01
 RMSDP=3.86D-03 MaxDP=3.54D-01              OVMax= 2.65D-01

 Cycle   2  Pass 1  IDiag  1:
 RMSU=  9.64D-04    CP:  9.98D-01
 E= -4780.74127071341     Delta-E=       -0.538783841428 Rises=F Damp=T
 DIIS: error= 1.34D-02 at cycle   2 NSaved=   2.
 NSaved= 2 IEnMin= 2 EnMin= -4780.74127071341     IErMin= 2 ErrMin= 1.34D-02
 ErrMax= 1.34D-02  0.00D+00 EMaxC= 1.00D-01 BMatC= 3.42D-01 BMatP= 1.99D+00
 IDIUse=3 WtCom= 8.66D-01 WtEn= 1.34D-01
 Coeff-Com: -0.562D+00 0.156D+01
 Coeff-En:   0.000D+00 0.100D+01
 Coeff:     -0.487D+00 0.149D+01
 Gap=     0.204 Goal=   None    Shift=    0.000
 RMSDP=1.01D-03 MaxDP=6.59D-02 DE=-5.39D-01 OVMax= 1.76D-01

 Cycle   3  Pass 1  IDiag  1:
 RMSU=  8.41D-04    CP:  9.91D-01  1.58D+00
 E= -4781.67789827631     Delta-E=       -0.936627562905 Rises=F Damp=F
 DIIS: error= 5.68D-03 at cycle   3 NSaved=   3.
 NSaved= 3 IEnMin= 3 EnMin= -4781.67789827631     IErMin= 3 ErrMin= 5.68D-03
 ErrMax= 5.68D-03  0.00D+00 EMaxC= 1.00D-01 BMatC= 6.26D-02 BMatP= 3.42D-01
 IDIUse=3 WtCom= 9.43D-01 WtEn= 5.68D-02
 Coeff-Com: -0.285D+00 0.701D+00 0.584D+00
 Coeff-En:   0.000D+00 0.000D+00 0.100D+01
 Coeff:     -0.269D+00 0.661D+00 0.608D+00
 Gap=     0.166 Goal=   None    Shift=    0.000
 RMSDP=4.12D-04 MaxDP=3.83D-02 DE=-9.37D-01 OVMax= 5.35D-02

 Cycle   4  Pass 1  IDiag  1:
 RMSU=  3.48D-04    CP:  9.93D-01  1.64D+00  7.50D-01
 E= -4781.71791942235     Delta-E=       -0.040021146040 Rises=F Damp=F
 DIIS: error= 3.83D-03 at cycle   4 NSaved=   4.
 NSaved= 4 IEnMin= 4 EnMin= -4781.71791942235     IErMin= 4 ErrMin= 3.83D-03
 ErrMax= 3.83D-03  0.00D+00 EMaxC= 1.00D-01 BMatC= 2.26D-02 BMatP= 6.26D-02
 IDIUse=3 WtCom= 9.62D-01 WtEn= 3.83D-02
 Coeff-Com: -0.107D+00 0.215D+00 0.381D+00 0.512D+00
 Coeff-En:   0.000D+00 0.000D+00 0.242D+00 0.758D+00
 Coeff:     -0.103D+00 0.207D+00 0.375D+00 0.521D+00
 Gap=     0.168 Goal=   None    Shift=    0.000
 RMSDP=1.91D-04 MaxDP=1.91D-02 DE=-4.00D-02 OVMax= 2.49D-02

 Cycle   5  Pass 1  IDiag  1:
 RMSU=  1.28D-04    CP:  9.93D-01  1.61D+00  8.08D-01  6.26D-01
 E= -4781.73480815289     Delta-E=       -0.016888730535 Rises=F Damp=F
 DIIS: error= 1.43D-03 at cycle   5 NSaved=   5.
 NSaved= 5 IEnMin= 5 EnMin= -4781.73480815289     IErMin= 5 ErrMin= 1.43D-03
 ErrMax= 1.43D-03  0.00D+00 EMaxC= 1.00D-01 BMatC= 2.12D-03 BMatP= 2.26D-02
 IDIUse=3 WtCom= 9.86D-01 WtEn= 1.43D-02
 Coeff-Com: -0.315D-01 0.424D-01 0.127D+00 0.283D+00 0.579D+00
 Coeff-En:   0.000D+00 0.000D+00 0.000D+00 0.361D-01 0.964D+00
 Coeff:     -0.311D-01 0.418D-01 0.125D+00 0.280D+00 0.585D+00
 Gap=     0.166 Goal=   None    Shift=    0.000
 RMSDP=5.73D-05 MaxDP=5.93D-03 DE=-1.69D-02 OVMax= 7.80D-03

 Cycle   6  Pass 1  IDiag  1:
 RMSU=  4.10D-05    CP:  9.93D-01  1.63D+00  8.16D-01  6.61D-01  7.37D-01
 E= -4781.73658179393     Delta-E=       -0.001773641045 Rises=F Damp=F
 DIIS: error= 3.73D-04 at cycle   6 NSaved=   6.
 NSaved= 6 IEnMin= 6 EnMin= -4781.73658179393     IErMin= 6 ErrMin= 3.73D-04
 ErrMax= 3.73D-04  0.00D+00 EMaxC= 1.00D-01 BMatC= 1.96D-04 BMatP= 2.12D-03
 IDIUse=3 WtCom= 9.96D-01 WtEn= 3.73D-03
 Coeff-Com: -0.800D-02 0.426D-02 0.308D-01 0.941D-01 0.305D+00 0.574D+00
 Coeff-En:   0.000D+00 0.000D+00 0.000D+00 0.000D+00 0.000D+00 0.100D+01
 Coeff:     -0.797D-02 0.424D-02 0.307D-01 0.937D-01 0.303D+00 0.576D+00
 Gap=     0.166 Goal=   None    Shift=    0.000
 RMSDP=2.05D-05 MaxDP=2.22D-03 DE=-1.77D-03 OVMax= 3.41D-03

 Cycle   7  Pass 1  IDiag  1:
 RMSU=  1.59D-05    CP:  9.93D-01  1.63D+00  8.19D-01  6.69D-01  7.81D-01
                    CP:  7.38D-01
 E= -4781.73672393287     Delta-E=       -0.000142138939 Rises=F Damp=F
 DIIS: error= 1.55D-04 at cycle   7 NSaved=   7.
 NSaved= 7 IEnMin= 7 EnMin= -4781.73672393287     IErMin= 7 ErrMin= 1.55D-04
 ErrMax= 1.55D-04  0.00D+00 EMaxC= 1.00D-01 BMatC= 3.41D-05 BMatP= 1.96D-04
 IDIUse=3 WtCom= 9.98D-01 WtEn= 1.55D-03
 Coeff-Com: -0.881D-03-0.231D-02-0.250D-03 0.126D-01 0.952D-01 0.344D+00
 Coeff-Com:  0.551D+00
 Coeff-En:   0.000D+00 0.000D+00 0.000D+00 0.000D+00 0.000D+00 0.872D-01
 Coeff-En:   0.913D+00
 Coeff:     -0.879D-03-0.231D-02-0.249D-03 0.126D-01 0.951D-01 0.344D+00
 Coeff:      0.552D+00
 Gap=     0.167 Goal=   None    Shift=    0.000
 RMSDP=7.40D-06 MaxDP=8.35D-04 DE=-1.42D-04 OVMax= 8.87D-04

 Cycle   8  Pass 1  IDiag  1:
 RMSU=  5.03D-06    CP:  9.93D-01  1.63D+00  8.20D-01  6.71D-01  7.95D-01
                    CP:  8.04D-01  7.32D-01
 E= -4781.73675100978     Delta-E=       -0.000027076912 Rises=F Damp=F
 DIIS: error= 2.19D-05 at cycle   8 NSaved=   8.
 NSaved= 8 IEnMin= 8 EnMin= -4781.73675100978     IErMin= 8 ErrMin= 2.19D-05
 ErrMax= 2.19D-05  0.00D+00 EMaxC= 1.00D-01 BMatC= 1.29D-06 BMatP= 3.41D-05
 IDIUse=1 WtCom= 1.00D+00 WtEn= 0.00D+00
 Coeff-Com:  0.461D-03-0.112D-02-0.366D-02-0.685D-02 0.811D-03 0.638D-01
 Coeff-Com:  0.200D+00 0.747D+00
 Coeff:      0.461D-03-0.112D-02-0.366D-02-0.685D-02 0.811D-03 0.638D-01
 Coeff:      0.200D+00 0.747D+00
 Gap=     0.167 Goal=   None    Shift=    0.000
 RMSDP=2.13D-06 MaxDP=1.98D-04 DE=-2.71D-05 OVMax= 3.79D-04

 Cycle   9  Pass 1  IDiag  1:
 RMSU=  1.72D-06    CP:  9.93D-01  1.63D+00  8.20D-01  6.71D-01  7.99D-01
                    CP:  8.26D-01  7.70D-01  9.34D-01
 E= -4781.73675229751     Delta-E=       -0.000001287723 Rises=F Damp=F
 DIIS: error= 7.02D-06 at cycle   9 NSaved=   9.
 NSaved= 9 IEnMin= 9 EnMin= -4781.73675229751     IErMin= 9 ErrMin= 7.02D-06
 ErrMax= 7.02D-06  0.00D+00 EMaxC= 1.00D-01 BMatC= 2.33D-07 BMatP= 1.29D-06
 IDIUse=1 WtCom= 1.00D+00 WtEn= 0.00D+00
 Coeff-Com:  0.313D-03-0.339D-03-0.166D-02-0.450D-02-0.806D-02-0.268D-02
 Coeff-Com:  0.398D-01 0.353D+00 0.625D+00
 Coeff:      0.313D-03-0.339D-03-0.166D-02-0.450D-02-0.806D-02-0.268D-02
 Coeff:      0.398D-01 0.353D+00 0.625D+00
 Gap=     0.167 Goal=   None    Shift=    0.000
 RMSDP=8.28D-07 MaxDP=6.28D-05 DE=-1.29D-06 OVMax= 1.68D-04

 Cycle  10  Pass 1  IDiag  1:
 RMSU=  5.86D-07    CP:  9.93D-01  1.63D+00  8.20D-01  6.71D-01  8.01D-01
                    CP:  8.31D-01  7.86D-01  1.01D+00  8.78D-01
 E= -4781.73675252563     Delta-E=       -0.000000228125 Rises=F Damp=F
 DIIS: error= 3.34D-06 at cycle  10 NSaved=  10.
 NSaved=10 IEnMin=10 EnMin= -4781.73675252563     IErMin=10 ErrMin= 3.34D-06
 ErrMax= 3.34D-06  0.00D+00 EMaxC= 1.00D-01 BMatC= 2.78D-08 BMatP= 2.33D-07
 IDIUse=1 WtCom= 1.00D+00 WtEn= 0.00D+00
 Coeff-Com:  0.106D-03-0.508D-04-0.337D-03-0.135D-02-0.363D-02-0.829D-02
 Coeff-Com: -0.378D-02 0.831D-01 0.288D+00 0.646D+00
 Coeff:      0.106D-03-0.508D-04-0.337D-03-0.135D-02-0.363D-02-0.829D-02
 Coeff:     -0.378D-02 0.831D-01 0.288D+00 0.646D+00
 Gap=     0.167 Goal=   None    Shift=    0.000
 RMSDP=3.14D-07 MaxDP=2.22D-05 DE=-2.28D-07 OVMax= 7.33D-05

 Cycle  11  Pass 1  IDiag  1:
 RMSU=  2.42D-07    CP:  9.93D-01  1.63D+00  8.20D-01  6.71D-01  8.01D-01
                    CP:  8.32D-01  7.91D-01  1.03D+00  9.31D-01  9.18D-01
 E= -4781.73675255444     Delta-E=       -0.000000028807 Rises=F Damp=F
 DIIS: error= 1.69D-06 at cycle  11 NSaved=  11.
 NSaved=11 IEnMin=11 EnMin= -4781.73675255444     IErMin=11 ErrMin= 1.69D-06
 ErrMax= 1.69D-06  0.00D+00 EMaxC= 1.00D-01 BMatC= 6.29D-09 BMatP= 2.78D-08
 IDIUse=1 WtCom= 1.00D+00 WtEn= 0.00D+00
 Coeff-Com:  0.601D-05 0.285D-04 0.133D-03 0.754D-04-0.532D-03-0.403D-02
 Coeff-Com: -0.939D-02-0.181D-01 0.362D-01 0.347D+00 0.648D+00
 Coeff:      0.601D-05 0.285D-04 0.133D-03 0.754D-04-0.532D-03-0.403D-02
 Coeff:     -0.939D-02-0.181D-01 0.362D-01 0.347D+00 0.648D+00
 Gap=     0.167 Goal=   None    Shift=    0.000
 RMSDP=1.46D-07 MaxDP=1.07D-05 DE=-2.88D-08 OVMax= 4.23D-05

 Cycle  12  Pass 1  IDiag  1:
 RMSU=  9.87D-08    CP:  9.93D-01  1.63D+00  8.20D-01  6.71D-01  8.01D-01
                    CP:  8.33D-01  7.92D-01  1.04D+00  9.68D-01  1.02D+00
                    CP:  9.25D-01
 E= -4781.73675256140     Delta-E=       -0.000000006963 Rises=F Damp=F
 DIIS: error= 4.12D-07 at cycle  12 NSaved=  12.
 NSaved=12 IEnMin=12 EnMin= -4781.73675256140     IErMin=12 ErrMin= 4.12D-07
 ErrMax= 4.12D-07  0.00D+00 EMaxC= 1.00D-01 BMatC= 6.51D-10 BMatP= 6.29D-09
 IDIUse=1 WtCom= 1.00D+00 WtEn= 0.00D+00
 Coeff-Com: -0.677D-05 0.962D-05 0.106D-03 0.231D-03 0.283D-03-0.463D-03
 Coeff-Com: -0.374D-02-0.210D-01-0.310D-01 0.461D-01 0.278D+00 0.731D+00
 Coeff:     -0.677D-05 0.962D-05 0.106D-03 0.231D-03 0.283D-03-0.463D-03
 Coeff:     -0.374D-02-0.210D-01-0.310D-01 0.461D-01 0.278D+00 0.731D+00
 Gap=     0.167 Goal=   None    Shift=    0.000
 RMSDP=6.20D-08 MaxDP=4.03D-06 DE=-6.96D-09 OVMax= 2.06D-05

 Cycle  13  Pass 1  IDiag  1:
 RMSU=  3.26D-08    CP:  9.93D-01  1.63D+00  8.20D-01  6.71D-01  8.01D-01
                    CP:  8.33D-01  7.93D-01  1.05D+00  9.81D-01  1.06D+00
                    CP:  1.04D+00  9.74D-01
 E= -4781.73675256242     Delta-E=       -0.000000001019 Rises=F Damp=F
 DIIS: error= 2.23D-07 at cycle  13 NSaved=  13.
 NSaved=13 IEnMin=13 EnMin= -4781.73675256242     IErMin=13 ErrMin= 2.23D-07
 ErrMax= 2.23D-07  0.00D+00 EMaxC= 1.00D-01 BMatC= 8.65D-11 BMatP= 6.51D-10
 IDIUse=1 WtCom= 1.00D+00 WtEn= 0.00D+00
 Coeff-Com: -0.212D-05-0.860D-06 0.313D-04 0.890D-04 0.175D-03 0.306D-03
 Coeff-Com: -0.572D-03-0.681D-02-0.168D-01-0.193D-01 0.440D-01 0.321D+00
 Coeff-Com:  0.678D+00
 Coeff:     -0.212D-05-0.860D-06 0.313D-04 0.890D-04 0.175D-03 0.306D-03
 Coeff:     -0.572D-03-0.681D-02-0.168D-01-0.193D-01 0.440D-01 0.321D+00
 Coeff:      0.678D+00
 Gap=     0.167 Goal=   None    Shift=    0.000
 RMSDP=2.01D-08 MaxDP=1.36D-06 DE=-1.02D-09 OVMax= 5.95D-06

 Cycle  14  Pass 1  IDiag  1:
 RMSU=  1.23D-08    CP:  9.93D-01  1.63D+00  8.20D-01  6.71D-01  8.01D-01
                    CP:  8.33D-01  7.93D-01  1.05D+00  9.83D-01  1.08D+00
                    CP:  1.07D+00  1.05D+00  9.16D-01
 E= -4781.73675256255     Delta-E=       -0.000000000127 Rises=F Damp=F
 DIIS: error= 5.33D-08 at cycle  14 NSaved=  14.
 NSaved=14 IEnMin=14 EnMin= -4781.73675256255     IErMin=14 ErrMin= 5.33D-08
 ErrMax= 5.33D-08  0.00D+00 EMaxC= 1.00D-01 BMatC= 1.13D-11 BMatP= 8.65D-11
 IDIUse=1 WtCom= 1.00D+00 WtEn= 0.00D+00
 Coeff-Com:  0.831D-07-0.151D-05-0.163D-05 0.441D-05 0.338D-04 0.229D-03
 Coeff-Com:  0.326D-03 0.286D-03-0.227D-02-0.160D-01-0.258D-01 0.288D-01
 Coeff-Com:  0.292D+00 0.722D+00
 Coeff:      0.831D-07-0.151D-05-0.163D-05 0.441D-05 0.338D-04 0.229D-03
 Coeff:      0.326D-03 0.286D-03-0.227D-02-0.160D-01-0.258D-01 0.288D-01
 Coeff:      0.292D+00 0.722D+00
 Gap=     0.167 Goal=   None    Shift=    0.000
 RMSDP=7.49D-09 MaxDP=5.43D-07 DE=-1.27D-10 OVMax= 2.32D-06

 Error on total polarization charges =  0.03398
 SCF Done:  E(RMN15) =  -4781.73675256     A.U. after   14 cycles
            NFock= 14  Conv=0.75D-08     -V/T= 2.0064
 KE= 4.751215957622D+03 PE=-3.103972722194D+04 EE= 1.162429244794D+04
 SMD-CDS (non-electrostatic) energy       (kcal/mol) =       1.99
 (included in total energy above)
 Leave Link  502 at Wed Mar  5 13:51:08 2025, MaxMem= 82678120448 cpu:            8841.9 elap:             373.5
 (Enter /sysapps/ubuntu-applications/gaussian-new/avx/g16/l801.exe)
 DoSCS=F DFT=T ScalE2(SS,OS)=  1.000000  1.000000
 Range of M.O.s used for correlation:     1   847
 NBasis=   847 NAE=   211 NBE=   211 NFC=     0 NFV=     0
 NROrb=    847 NOA=   211 NOB=   211 NVA=   636 NVB=   636

 **** Warning!!: The largest alpha MO coefficient is  0.10255918D+02

 Leave Link  801 at Wed Mar  5 13:51:09 2025, MaxMem= 82678120448 cpu:               1.5 elap:               0.1
 (Enter /sysapps/ubuntu-applications/gaussian-new/avx/g16/l1101.exe)
 Using compressed storage, NAtomX=    69.
 Will process     70 centers per pass.
 Leave Link 1101 at Wed Mar  5 13:51:14 2025, MaxMem= 82678120448 cpu:             117.2 elap:               4.9
 (Enter /sysapps/ubuntu-applications/gaussian-new/avx/g16/l1102.exe)
 Symmetrizing basis deriv contribution to polar:
 IMax=3 JMax=2 DiffMx= 0.00D+00
 Leave Link 1102 at Wed Mar  5 13:51:14 2025, MaxMem= 82678120448 cpu:               4.0 elap:               0.2
 (Enter /sysapps/ubuntu-applications/gaussian-new/avx/g16/l1110.exe)
 Forming Gx(P) for the SCF density, NAtomX=    69.
 Integral derivatives from FoFJK, PRISM(SPDF).
 Do as many integral derivatives as possible in FoFJK.
 G2DrvN: MDV=   82678114378.
 G2DrvN: will do    70 centers at a time, making    1 passes.
 Calling FoFCou, ICntrl=  3107 FMM=T I1Cent=   0 AccDes= 0.00D+00.
 FoFJK:  IHMeth= 1 ICntrl=    3107 DoSepK=F KAlg= 0 I1Cent=           0 FoldK=F
 IRaf=         0 NMat=       1 IRICut=       1 DoRegI=T DoRafI=F ISym2E= 0 IDoP0=0 IntGTp=1.
 FoFCou: FMM=T IPFlag=           0 FMFlag=      100000 FMFlg1=        2001
         NFxFlg=           0 DoJE=F BraDBF=F KetDBF=F FulRan=T
         wScrn=  0.000000 ICntrl=      3107 IOpCl=  0 I1Cent=           0 NGrid=           0
         NMat0=    1 NMatS0=      1 NMatT0=    0 NMatD0=    1 NMtDS0=    0 NMtDT0=    0
 Symmetry not used in FoFCou.
 FMM levels:  10  Number of levels for PrismC:   9
 NEqPCM:  Using equilibrium solvation (IEInf=0, Eps=  10.1250, EpsInf=   2.0874)
 G2PCM: DoFxE=T DoFxN=T DoGrad=T DoDP/DQ/DG/TGxP=FFFF NFrqRd=   0 IEInf=0 SqF1=F DoCFld=F IF1Alg=4.
 GePol: Maximum number of non-zero 1st derivatives   =     268
 End of G2Drv F.D. properties file   721 does not exist.
 End of G2Drv F.D. properties file   722 does not exist.
 End of G2Drv F.D. properties file   788 does not exist.
 Leave Link 1110 at Wed Mar  5 14:12:23 2025, MaxMem= 82678120448 cpu:           30419.4 elap:            1268.7
 (Enter /sysapps/ubuntu-applications/gaussian-new/avx/g16/l1002.exe)
 Minotr:  Closed shell wavefunction.
          IDoAtm=11111111111111111111111111111111111111111111111111
          IDoAtm=1111111111111111111
 NEqPCM:  Using equilibrium solvation (IEInf=0, Eps=  10.1250, EpsInf=   2.0874)
          Direct CPHF calculation.
          Differentiating once with respect to electric field.
                with respect to dipole field.
          Differentiating once with respect to nuclear coordinates.
          Requested convergence is 1.0D-08 RMS, and 1.0D-07 maximum.
          Secondary convergence is 1.0D-12 RMS, and 1.0D-12 maximum.
          NewPWx=T KeepS1=F KeepF1=F KeepIn=T MapXYZ=F SortEE=F KeepMc=T.
        21347 words used for storage of precomputed grid.
 Two-electron integrals replicated using symmetry.
          MDV=   82678120448 using IRadAn=       1.
          Solving linear equations simultaneously, MaxMat=      72.
 FoF2E skips out because all densities are zero.
 CalDSu exits because no D1Ps are significant.
 FoFJK:  IHMeth= 1 ICntrl=       0 DoSepK=F KAlg= 0 I1Cent=           0 FoldK=F
 IRaf= 770000000 NMat=      72 IRICut=       1 DoRegI=T DoRafI=F ISym2E= 2 IDoP0=3 IntGTp=3.
          There are   210 degrees of freedom in the 1st order CPHF.  IDoFFX=6 NUNeed=     3.
    210 vectors produced by pass  0 Test12= 1.34D-13 1.00D-09 XBig12= 2.77D+02 5.66D+00.
 AX will form    72 AO Fock derivatives at one time.
    207 vectors produced by pass  1 Test12= 1.34D-13 1.00D-09 XBig12= 5.99D+01 6.61D-01.
    207 vectors produced by pass  2 Test12= 1.34D-13 1.00D-09 XBig12= 1.56D+00 1.02D-01.
    207 vectors produced by pass  3 Test12= 1.34D-13 1.00D-09 XBig12= 2.29D-02 9.24D-03.
    207 vectors produced by pass  4 Test12= 1.34D-13 1.00D-09 XBig12= 1.84D-04 8.26D-04.
    207 vectors produced by pass  5 Test12= 1.34D-13 1.00D-09 XBig12= 9.10D-07 5.46D-05.
    168 vectors produced by pass  6 Test12= 1.34D-13 1.00D-09 XBig12= 3.28D-09 3.61D-06.
     52 vectors produced by pass  7 Test12= 1.34D-13 1.00D-09 XBig12= 1.06D-11 2.50D-07.
      3 vectors produced by pass  8 Test12= 1.34D-13 1.00D-09 XBig12= 3.39D-14 1.43D-08.
      1 vectors produced by pass  9 Test12= 1.34D-13 1.00D-09 XBig12= 5.91D-16 1.20D-09.
 InvSVY:  IOpt=1 It=  1 EMax= 2.66D-14
 Solved reduced A of dimension  1469 with   210 vectors.
 FullF1:  Do perturbations      1 to       3.
 Isotropic polarizability for W=    0.000000      464.20 Bohr**3.
 End of Minotr F.D. properties file   721 does not exist.
 End of Minotr F.D. properties file   722 does not exist.
 End of Minotr F.D. properties file   788 does not exist.
 Leave Link 1002 at Wed Mar  5 15:02:11 2025, MaxMem= 82678120448 cpu:           71590.0 elap:            2986.5
 (Enter /sysapps/ubuntu-applications/gaussian-new/avx/g16/l601.exe)
 Copying SCF densities to generalized density rwf, IOpCl= 0 IROHF=0.

 **********************************************************************

            Population analysis using the SCF density.

 **********************************************************************

 Orbital symmetries:
       Occupied  (A) (A) (A) (A) (A) (A) (A) (A) (A) (A) (A) (A)
                 (A) (A) (A) (A) (A) (A) (A) (A) (A) (A) (A) (A)
                 (A) (A) (A) (A) (A) (A) (A) (A) (A) (A) (A) (A)
                 (A) (A) (A) (A) (A) (A) (A) (A) (A) (A) (A) (A)
                 (A) (A) (A) (A) (A) (A) (A) (A) (A) (A) (A) (A)
                 (A) (A) (A) (A) (A) (A) (A) (A) (A) (A) (A) (A)
                 (A) (A) (A) (A) (A) (A) (A) (A) (A) (A) (A) (A)
                 (A) (A) (A) (A) (A) (A) (A) (A) (A) (A) (A) (A)
                 (A) (A) (A) (A) (A) (A) (A) (A) (A) (A) (A) (A)
                 (A) (A) (A) (A) (A) (A) (A) (A) (A) (A) (A) (A)
                 (A) (A) (A) (A) (A) (A) (A) (A) (A) (A) (A) (A)
                 (A) (A) (A) (A) (A) (A) (A) (A) (A) (A) (A) (A)
                 (A) (A) (A) (A) (A) (A) (A) (A) (A) (A) (A) (A)
                 (A) (A) (A) (A) (A) (A) (A) (A) (A) (A) (A) (A)
                 (A) (A) (A) (A) (A) (A) (A) (A) (A) (A) (A) (A)
                 (A) (A) (A) (A) (A) (A) (A) (A) (A) (A) (A) (A)
                 (A) (A) (A) (A) (A) (A) (A) (A) (A) (A) (A) (A)
                 (A) (A) (A) (A) (A) (A) (A)
       Virtual   (A) (A) (A) (A) (A) (A) (A) (A) (A) (A) (A) (A)
                 (A) (A) (A) (A) (A) (A) (A) (A) (A) (A) (A) (A)
                 (A) (A) (A) (A) (A) (A) (A) (A) (A) (A) (A) (A)
                 (A) (A) (A) (A) (A) (A) (A) (A) (A) (A) (A) (A)
                 (A) (A) (A) (A) (A) (A) (A) (A) (A) (A) (A) (A)
                 (A) (A) (A) (A) (A) (A) (A) (A) (A) (A) (A) (A)
                 (A) (A) (A) (A) (A) (A) (A) (A) (A) (A) (A) (A)
                 (A) (A) (A) (A) (A) (A) (A) (A) (A) (A) (A) (A)
                 (A) (A) (A) (A) (A) (A) (A) (A) (A) (A) (A) (A)
                 (A) (A) (A) (A) (A) (A) (A) (A) (A) (A) (A) (A)
                 (A) (A) (A) (A) (A) (A) (A) (A) (A) (A) (A) (A)
                 (A) (A) (A) (A) (A) (A) (A) (A) (A) (A) (A) (A)
                 (A) (A) (A) (A) (A) (A) (A) (A) (A) (A) (A) (A)
                 (A) (A) (A) (A) (A) (A) (A) (A) (A) (A) (A) (A)
                 (A) (A) (A) (A) (A) (A) (A) (A) (A) (A) (A) (A)
                 (A) (A) (A) (A) (A) (A) (A) (A) (A) (A) (A) (A)
                 (A) (A) (A) (A) (A) (A) (A) (A) (A) (A) (A) (A)
                 (A) (A) (A) (A) (A) (A) (A) (A) (A) (A) (A) (A)
                 (A) (A) (A) (A) (A) (A) (A) (A) (A) (A) (A) (A)
                 (A) (A) (A) (A) (A) (A) (A) (A) (A) (A) (A) (A)
                 (A) (A) (A) (A) (A) (A) (A) (A) (A) (A) (A) (A)
                 (A) (A) (A) (A) (A) (A) (A) (A) (A) (A) (A) (A)
                 (A) (A) (A) (A) (A) (A) (A) (A) (A) (A) (A) (A)
                 (A) (A) (A) (A) (A) (A) (A) (A) (A) (A) (A) (A)
                 (A) (A) (A) (A) (A) (A) (A) (A) (A) (A) (A) (A)
                 (A) (A) (A) (A) (A) (A) (A) (A) (A) (A) (A) (A)
                 (A) (A) (A) (A) (A) (A) (A) (A) (A) (A) (A) (A)
                 (A) (A) (A) (A) (A) (A) (A) (A) (A) (A) (A) (A)
                 (A) (A) (A) (A) (A) (A) (A) (A) (A) (A) (A) (A)
                 (A) (A) (A) (A) (A) (A) (A) (A) (A) (A) (A) (A)
                 (A) (A) (A) (A) (A) (A) (A) (A) (A) (A) (A) (A)
                 (A) (A) (A) (A) (A) (A) (A) (A) (A) (A) (A) (A)
                 (A) (A) (A) (A) (A) (A) (A) (A) (A) (A) (A) (A)
                 (A) (A) (A) (A) (A) (A) (A) (A) (A) (A) (A) (A)
                 (A) (A) (A) (A) (A) (A) (A) (A) (A) (A) (A) (A)
                 (A) (A) (A) (A) (A) (A) (A) (A) (A) (A) (A) (A)
                 (A) (A) (A) (A) (A) (A) (A) (A) (A) (A) (A) (A)
                 (A) (A) (A) (A) (A) (A) (A) (A) (A) (A) (A) (A)
                 (A) (A) (A) (A) (A) (A) (A) (A) (A) (A) (A) (A)
                 (A) (A) (A) (A) (A) (A) (A) (A) (A) (A) (A) (A)
                 (A) (A) (A) (A) (A) (A) (A) (A) (A) (A) (A) (A)
                 (A) (A) (A) (A) (A) (A) (A) (A) (A) (A) (A) (A)
                 (A) (A) (A) (A) (A) (A) (A) (A) (A) (A) (A) (A)
                 (A) (A) (A) (A) (A) (A) (A) (A) (A) (A) (A) (A)
                 (A) (A) (A) (A) (A) (A) (A) (A) (A) (A) (A) (A)
                 (A) (A) (A) (A) (A) (A) (A) (A) (A) (A) (A) (A)
                 (A) (A) (A) (A) (A) (A) (A) (A) (A) (A) (A) (A)
                 (A) (A) (A) (A) (A) (A) (A) (A) (A) (A) (A) (A)
                 (A) (A) (A) (A) (A) (A) (A) (A) (A) (A) (A) (A)
                 (A) (A) (A) (A) (A) (A) (A) (A) (A) (A) (A) (A)
                 (A) (A) (A) (A) (A) (A) (A) (A) (A) (A) (A) (A)
                 (A) (A) (A) (A) (A) (A) (A) (A) (A) (A) (A) (A)
                 (A) (A) (A) (A) (A) (A) (A) (A) (A) (A) (A) (A)
 The electronic state is 1-A.
 Alpha  occ. eigenvalues -- -160.18596 -88.05436 -88.04889 -88.04586 -24.33612
 Alpha  occ. eigenvalues --  -24.33566 -24.33517 -24.33306 -24.33306 -24.33200
 Alpha  occ. eigenvalues --  -24.33141 -24.33136 -24.33057 -18.83846 -18.83765
 Alpha  occ. eigenvalues --  -18.83342 -18.82988 -18.82982 -18.82890 -18.82485
 Alpha  occ. eigenvalues --  -18.82345 -18.82170 -18.81985 -18.81802 -17.17123
 Alpha  occ. eigenvalues --  -14.47317 -14.47259 -14.47141 -14.29325 -14.21074
 Alpha  occ. eigenvalues --  -14.15894 -14.14896 -10.32890 -10.32654 -10.32394
 Alpha  occ. eigenvalues --  -10.23087 -10.18300 -10.15314 -10.15295 -10.15218
 Alpha  occ. eigenvalues --  -10.14916 -10.14106 -10.13239 -10.12794 -10.11083
 Alpha  occ. eigenvalues --  -10.07846 -10.07575 -10.06564 -10.06524 -10.06161
 Alpha  occ. eigenvalues --  -10.06131 -10.06107 -10.05502 -10.05372 -10.05195
 Alpha  occ. eigenvalues --   -7.95249  -7.94686  -7.94345  -6.14760  -6.14721
 Alpha  occ. eigenvalues --   -6.14608  -6.14199  -6.14153  -6.14056  -6.13858
 Alpha  occ. eigenvalues --   -6.13809  -6.13729  -2.13538  -1.38244  -1.38059
 Alpha  occ. eigenvalues --   -1.37888  -1.37316  -1.36995  -1.36888  -1.27316
 Alpha  occ. eigenvalues --   -1.27293  -1.26982  -1.26841  -1.26835  -1.26794
 Alpha  occ. eigenvalues --   -1.19733  -1.19009  -1.18553  -1.17762  -1.07940
 Alpha  occ. eigenvalues --   -1.06702  -1.05989  -1.05833  -1.05489  -1.04652
 Alpha  occ. eigenvalues --   -1.04132  -1.03709  -1.00873  -0.97973  -0.96711
 Alpha  occ. eigenvalues --   -0.93571  -0.91378  -0.88627  -0.85568  -0.81474
 Alpha  occ. eigenvalues --   -0.79613  -0.78888  -0.78831  -0.78704  -0.78544
 Alpha  occ. eigenvalues --   -0.78356  -0.76407  -0.75470  -0.74096  -0.71617
 Alpha  occ. eigenvalues --   -0.71147  -0.70912  -0.69129  -0.68170  -0.67356
 Alpha  occ. eigenvalues --   -0.67230  -0.66957  -0.66898  -0.66847  -0.66792
 Alpha  occ. eigenvalues --   -0.66591  -0.64515  -0.63341  -0.62716  -0.62384
 Alpha  occ. eigenvalues --   -0.61789  -0.61341  -0.60572  -0.59090  -0.57857
 Alpha  occ. eigenvalues --   -0.57011  -0.56697  -0.56213  -0.55984  -0.55768
 Alpha  occ. eigenvalues --   -0.55587  -0.55265  -0.54943  -0.54699  -0.54595
 Alpha  occ. eigenvalues --   -0.54554  -0.54437  -0.54259  -0.53672  -0.53409
 Alpha  occ. eigenvalues --   -0.53286  -0.52950  -0.52785  -0.52454  -0.52349
 Alpha  occ. eigenvalues --   -0.52120  -0.51451  -0.51327  -0.51048  -0.50924
 Alpha  occ. eigenvalues --   -0.50825  -0.50485  -0.50360  -0.50265  -0.49865
 Alpha  occ. eigenvalues --   -0.49015  -0.48632  -0.48372  -0.48302  -0.47736
 Alpha  occ. eigenvalues --   -0.47678  -0.47374  -0.47186  -0.46408  -0.46251
 Alpha  occ. eigenvalues --   -0.46126  -0.45704  -0.45198  -0.44695  -0.44281
 Alpha  occ. eigenvalues --   -0.44067  -0.43989  -0.43355  -0.43211  -0.42443
 Alpha  occ. eigenvalues --   -0.42229  -0.41960  -0.41766  -0.41665  -0.41649
 Alpha  occ. eigenvalues --   -0.41217  -0.41150  -0.40865  -0.40211  -0.39920
 Alpha  occ. eigenvalues --   -0.39586  -0.39436  -0.39098  -0.38958  -0.38428
 Alpha  occ. eigenvalues --   -0.38182  -0.38142  -0.37931  -0.37634  -0.37319
 Alpha  occ. eigenvalues --   -0.36877  -0.36532  -0.36154  -0.35918  -0.35490
 Alpha  occ. eigenvalues --   -0.34984  -0.34656  -0.31383  -0.29794  -0.29695
 Alpha  occ. eigenvalues --   -0.26812
 Alpha virt. eigenvalues --   -0.10148  -0.06128  -0.03956  -0.03003  -0.00459
 Alpha virt. eigenvalues --    0.00452   0.00801   0.00977   0.02391   0.02697
 Alpha virt. eigenvalues --    0.03810   0.03836   0.05218   0.06974   0.07241
 Alpha virt. eigenvalues --    0.08598   0.09167   0.09306   0.09636   0.09966
 Alpha virt. eigenvalues --    0.10019   0.10239   0.10462   0.10595   0.10939
 Alpha virt. eigenvalues --    0.11016   0.11147   0.11319   0.11845   0.12156
 Alpha virt. eigenvalues --    0.12490   0.13155   0.13588   0.14042   0.14583
 Alpha virt. eigenvalues --    0.14792   0.15362   0.15951   0.15982   0.16420
 Alpha virt. eigenvalues --    0.16873   0.17068   0.17655   0.18480   0.18800
 Alpha virt. eigenvalues --    0.18904   0.19092   0.19503   0.19925   0.20474
 Alpha virt. eigenvalues --    0.20526   0.21121   0.21427   0.22213   0.22574
 Alpha virt. eigenvalues --    0.22707   0.22869   0.23070   0.24390   0.24792
 Alpha virt. eigenvalues --    0.24821   0.25230   0.25963   0.26005   0.26423
 Alpha virt. eigenvalues --    0.26840   0.26959   0.27396   0.27470   0.28171
 Alpha virt. eigenvalues --    0.28273   0.28662   0.28791   0.29418   0.29527
 Alpha virt. eigenvalues --    0.30129   0.30731   0.31017   0.31794   0.32293
 Alpha virt. eigenvalues --    0.32788   0.33590   0.34068   0.34214   0.35420
 Alpha virt. eigenvalues --    0.35468   0.37038   0.38324   0.39084   0.39476
 Alpha virt. eigenvalues --    0.40115   0.40534   0.40836   0.41309   0.41814
 Alpha virt. eigenvalues --    0.42659   0.43498   0.43704   0.44439   0.44713
 Alpha virt. eigenvalues --    0.45046   0.45671   0.45964   0.46171   0.46475
 Alpha virt. eigenvalues --    0.46828   0.48080   0.48286   0.48480   0.48773
 Alpha virt. eigenvalues --    0.49020   0.49462   0.49755   0.49866   0.50147
 Alpha virt. eigenvalues --    0.50611   0.50774   0.51026   0.51286   0.51961
 Alpha virt. eigenvalues --    0.52346   0.52775   0.53211   0.53816   0.53872
 Alpha virt. eigenvalues --    0.55005   0.55513   0.56085   0.56344   0.56670
 Alpha virt. eigenvalues --    0.57383   0.57610   0.58275   0.58488   0.58839
 Alpha virt. eigenvalues --    0.59039   0.59887   0.59947   0.60577   0.61641
 Alpha virt. eigenvalues --    0.61831   0.62307   0.62610   0.63142   0.63438
 Alpha virt. eigenvalues --    0.64038   0.64237   0.64741   0.65346   0.65516
 Alpha virt. eigenvalues --    0.65756   0.66190   0.66540   0.66848   0.67212
 Alpha virt. eigenvalues --    0.67295   0.67686   0.68289   0.68369   0.69047
 Alpha virt. eigenvalues --    0.69281   0.69481   0.69642   0.69908   0.69987
 Alpha virt. eigenvalues --    0.70240   0.70589   0.70964   0.71151   0.71495
 Alpha virt. eigenvalues --    0.71905   0.72145   0.72524   0.73006   0.73063
 Alpha virt. eigenvalues --    0.73651   0.73894   0.74171   0.74444   0.74973
 Alpha virt. eigenvalues --    0.74993   0.75528   0.75802   0.76351   0.76504
 Alpha virt. eigenvalues --    0.76683   0.77404   0.77871   0.78448   0.78668
 Alpha virt. eigenvalues --    0.78845   0.80041   0.80439   0.80901   0.81747
 Alpha virt. eigenvalues --    0.82324   0.82775   0.83681   0.83993   0.84997
 Alpha virt. eigenvalues --    0.85261   0.85903   0.85944   0.86766   0.87421
 Alpha virt. eigenvalues --    0.87837   0.88302   0.88607   0.89023   0.89504
 Alpha virt. eigenvalues --    0.90189   0.90635   0.91456   0.91736   0.92309
 Alpha virt. eigenvalues --    0.93511   0.93994   0.94398   0.94779   0.95136
 Alpha virt. eigenvalues --    0.96103   0.96411   0.97457   0.97696   0.98490
 Alpha virt. eigenvalues --    0.99165   0.99835   1.00297   1.00723   1.00925
 Alpha virt. eigenvalues --    1.01776   1.02341   1.02799   1.03179   1.03995
 Alpha virt. eigenvalues --    1.04568   1.04820   1.05546   1.06206   1.06681
 Alpha virt. eigenvalues --    1.07395   1.08246   1.08718   1.08876   1.09230
 Alpha virt. eigenvalues --    1.09664   1.10495   1.11397   1.11711   1.11788
 Alpha virt. eigenvalues --    1.12261   1.12680   1.12973   1.13785   1.14347
 Alpha virt. eigenvalues --    1.14665   1.14993   1.15880   1.16020   1.16263
 Alpha virt. eigenvalues --    1.16601   1.16827   1.17309   1.18334   1.18626
 Alpha virt. eigenvalues --    1.19122   1.19657   1.19808   1.20337   1.20690
 Alpha virt. eigenvalues --    1.21017   1.21394   1.21614   1.22028   1.22351
 Alpha virt. eigenvalues --    1.22711   1.23028   1.23696   1.23845   1.24017
 Alpha virt. eigenvalues --    1.24724   1.25597   1.25950   1.26259   1.26806
 Alpha virt. eigenvalues --    1.27275   1.27908   1.27981   1.28884   1.29141
 Alpha virt. eigenvalues --    1.29956   1.30807   1.30967   1.31461   1.31917
 Alpha virt. eigenvalues --    1.32264   1.32586   1.33217   1.33709   1.33837
 Alpha virt. eigenvalues --    1.34783   1.35017   1.35028   1.35588   1.36802
 Alpha virt. eigenvalues --    1.37068   1.37739   1.38052   1.38580   1.39488
 Alpha virt. eigenvalues --    1.39845   1.40015   1.40622   1.40750   1.41708
 Alpha virt. eigenvalues --    1.41908   1.42931   1.43483   1.44238   1.44679
 Alpha virt. eigenvalues --    1.44926   1.45366   1.45761   1.46139   1.47259
 Alpha virt. eigenvalues --    1.47579   1.48449   1.49672   1.50677   1.50807
 Alpha virt. eigenvalues --    1.51231   1.51756   1.52376   1.52498   1.53335
 Alpha virt. eigenvalues --    1.53842   1.54266   1.54811   1.56016   1.56807
 Alpha virt. eigenvalues --    1.57216   1.57920   1.58156   1.58786   1.59196
 Alpha virt. eigenvalues --    1.60500   1.60915   1.61221   1.61782   1.62051
 Alpha virt. eigenvalues --    1.62465   1.62737   1.63417   1.63981   1.64533
 Alpha virt. eigenvalues --    1.65015   1.65908   1.66162   1.66656   1.67164
 Alpha virt. eigenvalues --    1.67660   1.68200   1.68673   1.68699   1.69839
 Alpha virt. eigenvalues --    1.70230   1.70716   1.71338   1.72153   1.72534
 Alpha virt. eigenvalues --    1.72673   1.73174   1.73374   1.74194   1.74346
 Alpha virt. eigenvalues --    1.74686   1.74908   1.75019   1.75324   1.76425
 Alpha virt. eigenvalues --    1.76680   1.76821   1.77480   1.79311   1.79987
 Alpha virt. eigenvalues --    1.80661   1.80733   1.81956   1.82278   1.82753
 Alpha virt. eigenvalues --    1.83284   1.83557   1.84263   1.85139   1.85664
 Alpha virt. eigenvalues --    1.85931   1.86608   1.86798   1.87213   1.87564
 Alpha virt. eigenvalues --    1.87681   1.88276   1.89206   1.89709   1.89875
 Alpha virt. eigenvalues --    1.90105   1.90738   1.91252   1.91483   1.91997
 Alpha virt. eigenvalues --    1.92655   1.93006   1.93225   1.93767   1.93945
 Alpha virt. eigenvalues --    1.94545   1.94667   1.95675   1.95879   1.96202
 Alpha virt. eigenvalues --    1.97198   1.97276   1.98109   1.98390   1.98930
 Alpha virt. eigenvalues --    1.99699   2.00583   2.00741   2.00912   2.01462
 Alpha virt. eigenvalues --    2.02541   2.03315   2.04472   2.04495   2.04800
 Alpha virt. eigenvalues --    2.05316   2.05722   2.06817   2.07310   2.08142
 Alpha virt. eigenvalues --    2.08375   2.08929   2.09445   2.10759   2.11995
 Alpha virt. eigenvalues --    2.12260   2.12616   2.13427   2.14343   2.14990
 Alpha virt. eigenvalues --    2.16755   2.17612   2.19169   2.19216   2.20563
 Alpha virt. eigenvalues --    2.20712   2.21333   2.22056   2.22369   2.22568
 Alpha virt. eigenvalues --    2.23261   2.23587   2.23855   2.24360   2.24696
 Alpha virt. eigenvalues --    2.25640   2.26716   2.27794   2.28312   2.30568
 Alpha virt. eigenvalues --    2.30688   2.31394   2.31921   2.32964   2.34838
 Alpha virt. eigenvalues --    2.35573   2.36644   2.37986   2.40091   2.40437
 Alpha virt. eigenvalues --    2.42610   2.43292   2.44444   2.45410   2.47157
 Alpha virt. eigenvalues --    2.47634   2.48436   2.48853   2.53393   2.54614
 Alpha virt. eigenvalues --    2.56147   2.56497   2.56918   2.57428   2.58510
 Alpha virt. eigenvalues --    2.58624   2.59596   2.60787   2.60977   2.61368
 Alpha virt. eigenvalues --    2.61531   2.62191   2.62498   2.62871   2.63224
 Alpha virt. eigenvalues --    2.63728   2.63861   2.64891   2.66090   2.66484
 Alpha virt. eigenvalues --    2.67055   2.67908   2.68320   2.68508   2.68694
 Alpha virt. eigenvalues --    2.70056   2.70130   2.70711   2.71028   2.71621
 Alpha virt. eigenvalues --    2.73029   2.73416   2.74050   2.74509   2.74610
 Alpha virt. eigenvalues --    2.76636   2.77740   2.78236   2.78364   2.79087
 Alpha virt. eigenvalues --    2.79694   2.80177   2.80481   2.80754   2.81519
 Alpha virt. eigenvalues --    2.81827   2.82409   2.83162   2.83395   2.83987
 Alpha virt. eigenvalues --    2.84828   2.85633   2.86845   2.87725   2.88823
 Alpha virt. eigenvalues --    2.89697   2.90033   2.90993   2.92115   2.92344
 Alpha virt. eigenvalues --    2.92801   2.93523   2.94128   2.94552   2.95276
 Alpha virt. eigenvalues --    2.95740   2.95931   2.96857   2.97580   2.98417
 Alpha virt. eigenvalues --    2.98657   2.99047   2.99329   2.99771   2.99994
 Alpha virt. eigenvalues --    3.00341   3.01773   3.02839   3.03110   3.03399
 Alpha virt. eigenvalues --    3.03458   3.03495   3.03591   3.03690   3.03725
 Alpha virt. eigenvalues --    3.03878   3.03959   3.04057   3.04242   3.04255
 Alpha virt. eigenvalues --    3.04568   3.04972   3.05154   3.05299   3.05599
 Alpha virt. eigenvalues --    3.05974   3.06484   3.06872   3.07638   3.07942
 Alpha virt. eigenvalues --    3.10802   3.11513   3.11752   3.14463   3.15863
 Alpha virt. eigenvalues --    3.16052   3.16222   3.16514   3.16939   3.17082
 Alpha virt. eigenvalues --    3.21049   3.22413   3.23760   3.32239   3.34448
 Alpha virt. eigenvalues --    3.35628   3.36432   3.37026   3.38052   3.38399
 Alpha virt. eigenvalues --    3.38885   3.38979   3.39295   3.39395   3.40036
 Alpha virt. eigenvalues --    3.40457   3.43855   3.50999   3.52450   3.52534
 Alpha virt. eigenvalues --    3.52926   3.53609   3.53979   3.54538   3.56755
 Alpha virt. eigenvalues --    3.58418   3.61919   3.67612   3.67837   3.68301
 Alpha virt. eigenvalues --    3.81180   3.81581   3.82783   3.83432   3.83904
 Alpha virt. eigenvalues --    3.84410
          Condensed to atoms (all electrons):
 Mulliken charges:
               1
     1  C   -0.031768
     2  C    0.003202
     3  C    0.004274
     4  C    0.014994
     5  C    0.002935
     6  C    0.008218
     7  C   -0.099243
     8  C    0.035014
     9  C    0.015290
    10  H    0.005888
    11  H    0.013405
    12  H    0.016019
    13  H    0.012799
    14  H    0.002587
    15  O   -0.311717
    16  O   -0.294995
    17  O   -0.440597
    18  O   -0.442370
    19  O   -0.422927
    20  S    0.882357
    21  S    0.865304
    22  S    0.865165
    23  O   -0.446777
    24  O   -0.414214
    25  O   -0.433992
    26  O   -0.406900
    27  O   -0.449488
    28  O   -0.422785
    29  C    0.431953
    30  C    0.432136
    31  C    0.418980
    32  F   -0.125482
    33  F   -0.116462
    34  F   -0.129660
    35  F   -0.107021
    36  F   -0.126600
    37  F   -0.126757
    38  F   -0.128874
    39  F   -0.115542
    40  F   -0.126959
    41  C    0.019429
    42  H    0.025782
    43  C   -0.094069
    44  C   -0.115381
    45  C   -0.202459
    46  C    0.038331
    47  C    0.079317
    48  C    0.152796
    49  H    0.093750
    50  H    0.080872
    51  H    0.076775
    52  N    0.142001
    53  N    0.154567
    54  N   -0.097669
    55  N    0.014814
    56  Sc   0.270577
    57  C    0.156860
    58  H    0.045462
    59  H    0.026572
    60  C    0.209139
    61  H    0.113783
    62  C    0.105181
    63  H    0.075857
    64  H    0.037990
    65  H    0.036265
    66  C    0.106495
    67  H    0.015454
    68  H    0.038297
    69  H    0.083823
 Sum of Mulliken charges =  -0.00000
 Mulliken charges with hydrogens summed into heavy atoms:
               1
     1  C   -0.031768
     2  C    0.009090
     3  C    0.017679
     4  C    0.031013
     5  C    0.015735
     6  C    0.010806
     7  C   -0.099243
     8  C    0.035014
     9  C    0.015290
    15  O   -0.311717
    16  O   -0.294995
    17  O   -0.440597
    18  O   -0.442370
    19  O   -0.422927
    20  S    0.882357
    21  S    0.865304
    22  S    0.865165
    23  O   -0.446777
    24  O   -0.414214
    25  O   -0.433992
    26  O   -0.406900
    27  O   -0.449488
    28  O   -0.422785
    29  C    0.431953
    30  C    0.432136
    31  C    0.418980
    32  F   -0.125482
    33  F   -0.116462
    34  F   -0.129660
    35  F   -0.107021
    36  F   -0.126600
    37  F   -0.126757
    38  F   -0.128874
    39  F   -0.115542
    40  F   -0.126959
    41  C    0.045211
    43  C   -0.094069
    44  C   -0.115381
    45  C   -0.202459
    46  C    0.132081
    47  C    0.160189
    48  C    0.229570
    52  N    0.142001
    53  N    0.154567
    54  N   -0.097669
    55  N    0.014814
    56  Sc   0.270577
    57  C    0.228894
    60  C    0.322922
    62  C    0.255293
    66  C    0.244068
 APT charges:
               1
     1  C   -0.017371
     2  C   -0.069312
     3  C   -0.049607
     4  C   -0.024596
     5  C   -0.046121
     6  C   -0.080054
     7  C   -0.983647
     8  C    1.423357
     9  C    1.419261
    10  H    0.058377
    11  H    0.048127
    12  H    0.050758
    13  H    0.047804
    14  H    0.074308
    15  O   -1.394672
    16  O   -1.355883
    17  O   -1.218589
    18  O   -1.242062
    19  O   -1.126467
    20  S    2.498987
    21  S    2.567522
    22  S    2.579576
    23  O   -1.207114
    24  O   -0.993923
    25  O   -1.211682
    26  O   -0.991155
    27  O   -1.275322
    28  O   -0.992726
    29  C    1.898236
    30  C    1.863510
    31  C    1.829821
    32  F   -0.651838
    33  F   -0.665998
    34  F   -0.705915
    35  F   -0.641460
    36  F   -0.668911
    37  F   -0.672565
    38  F   -0.659414
    39  F   -0.636690
    40  F   -0.686549
    41  C    0.144523
    42  H    0.059510
    43  C    0.715106
    44  C    0.055436
    45  C    0.066631
    46  C   -0.132517
    47  C    0.200086
    48  C    0.195760
    49  H    0.146226
    50  H    0.125813
    51  H    0.158727
    52  N   -0.296773
    53  N   -0.305193
    54  N   -0.250551
    55  N   -0.310424
    56  Sc   2.908086
    57  C    0.135434
    58  H   -0.014815
    59  H    0.027605
    60  C    0.261901
    61  H    0.189988
    62  C   -0.208072
    63  H    0.047002
    64  H    0.045384
    65  H    0.052898
    66  C   -0.228811
    67  H    0.034304
    68  H    0.038478
    69  H    0.048257
 Sum of APT charges =  -0.00000
 APT charges with hydrogens summed into heavy atoms:
               1
     1  C   -0.017371
     2  C   -0.010934
     3  C   -0.001479
     4  C    0.026163
     5  C    0.001683
     6  C   -0.005746
     7  C   -0.983647
     8  C    1.423357
     9  C    1.419261
    15  O   -1.394672
    16  O   -1.355883
    17  O   -1.218589
    18  O   -1.242062
    19  O   -1.126467
    20  S    2.498987
    21  S    2.567522
    22  S    2.579576
    23  O   -1.207114
    24  O   -0.993923
    25  O   -1.211682
    26  O   -0.991155
    27  O   -1.275322
    28  O   -0.992726
    29  C    1.898236
    30  C    1.863510
    31  C    1.829821
    32  F   -0.651838
    33  F   -0.665998
    34  F   -0.705915
    35  F   -0.641460
    36  F   -0.668911
    37  F   -0.672565
    38  F   -0.659414
    39  F   -0.636690
    40  F   -0.686549
    41  C    0.204033
    43  C    0.715106
    44  C    0.055436
    45  C    0.066631
    46  C    0.013709
    47  C    0.325899
    48  C    0.354488
    52  N   -0.296773
    53  N   -0.305193
    54  N   -0.250551
    55  N   -0.310424
    56  Sc   2.908086
    57  C    0.148225
    60  C    0.451890
    62  C   -0.062789
    66  C   -0.107771
 Electronic spatial extent (au):  <R**2>=          32604.8327
 Charge=              0.0000 electrons
 Dipole moment (field-independent basis, Debye):
    X=            -19.7605    Y=            -12.1099    Z=              2.3089  Tot=             23.2907
 Quadrupole moment (field-independent basis, Debye-Ang):
   XX=           -325.3783   YY=           -309.4831   ZZ=           -331.3523
   XY=            -19.1566   XZ=            -11.2500   YZ=            -18.8568
 Traceless Quadrupole moment (field-independent basis, Debye-Ang):
   XX=             -3.3071   YY=             12.5881   ZZ=             -9.2810
   XY=            -19.1566   XZ=            -11.2500   YZ=            -18.8568
 Octapole moment (field-independent basis, Debye-Ang**2):
  XXX=            120.6342  YYY=           -180.9263  ZZZ=            -34.7914  XYY=             20.2429
  XXY=            146.9250  XXZ=            -68.5157  XZZ=              6.5009  YZZ=             21.4828
  YYZ=             20.6194  XYZ=             21.1545
 Hexadecapole moment (field-independent basis, Debye-Ang**3):
 XXXX=         -26450.1728 YYYY=          -8943.3438 ZZZZ=          -4862.3824 XXXY=          -1649.1133
 XXXZ=             80.9103 YYYX=           -453.8063 YYYZ=           -270.0002 ZZZX=             90.2866
 ZZZY=            -60.8820 XXYY=          -6394.8442 XXZZ=          -5568.2747 YYZZ=          -2204.8914
 XXYZ=            -54.7655 YYXZ=           -224.5321 ZZXY=            -81.2256
[...]
 2,0.01069411,0.06520661,0.06244031,-0.00010116,0.00002692,0.00006037,0
 .00003913,-0.00002829,-0.00001764,0.00001981,-0.00000738,0.00000326,0.
 00001505,-0.00000386,0.00000923,-0.00000624,0.00000829,0.00001362,0.00
 000892,-0.00001092,-0.00001149,-0.00082451,-0.00108430,-0.00004262,0.0
 0014208,-0.00060626,0.00046558,0.02564369,0.00463262,0.00791421,-0.000
 00128,0.00000046,-0.00000427,0.00000855,-0.00000212,0.00000361,0.00000
 510,-0.00000195,0.00000249,0.00000813,-0.00000447,-0.00000346,-0.00003
 043,0.00001576,0.00004000,0.00570854,0.00047831,-0.00752823,-0.0002568
 1,0.00017230,-0.00020444,0.00017977,-0.00005087,0.00010864,0.00004180,
 -0.00013443,-0.00014697,0.00000010,0.00018951,-0.00000813,0.00000504,-
 0.00023511,-0.00005204,-0.00018487,0.00006207,-0.00025126,-0.00003803,
 0.00013612,0.00017755,-0.00000654,0.00025765,-0.00000568,0.00002686,0.
 00008604,0.00002924,0.00017965,-0.00000588,0.00013598,0.00001918,-0.00
 002991,0.00009547,0.00002403,-0.00014183,-0.00014042,-0.00000954,-0.00
 003334,-0.00007974,-0.00004454,0.00007198,-0.00000770,-0.00007015,-0.0
 0001036,0.00001244,0.00006294,-0.00005484,0.00004033,0.00000701,-0.000
 03294,0.00001499,0.00002096,-0.00001284,0.00000178,0.00002161,-0.00003
 074,-0.00001869,0.00001848,0.00000037,0.00000209,0.00002989,-0.0000160
 3,-0.00000620,0.00003298,0.00002068,0.00000929,-0.00003783,0.00001251,
 -0.00000560,-0.00001249,0.00001493,-0.00001985,-0.00001305,0.00004008,
 -0.00001750,-0.00027432,-0.00001263,-0.00017016,0.00011284,0.00002941,
 0.00003599,-0.00049433,-0.00028105,-0.00068267,-0.00003391,-0.00001640
 ,-0.00000989,-0.00453651,-0.00374767,-0.00217033,-0.00009997,0.0000770
 6,0.00015345,0.00000975,0.00000105,-0.00003271,0.00001718,0.00003298,-
 0.00009566,-0.00000696,0.00000551,0.00001412,-0.00000324,-0.00000067,0
 .00000043,0.00000439,-0.00000090,-0.00000154,0.00004195,0.00003321,0.0
 0003223,0.00019247,0.00010150,0.00026715,0.00036191,0.00004753,-0.0000
 4226,-0.00004359,0.00000652,-0.00001863,-0.00074617,-0.00061827,0.0006
 1839,-0.00078429,0.00082720,-0.00205947,-0.00003713,0.00001529,0.00037
 438,-0.00252037,0.00204977,-0.00160017,0.00213292,-0.00453522,-0.00110
 951,0.00002118,-0.00048755,0.00007191,-0.00007242,0.00013879,0.0000767
 2,0.00002062,-0.00000599,0.00002697,-0.00003351,0.00003443,-0.00005050
 ,-0.00002073,0.00002094,0.00001902,0.02613785,0.01078969,-0.04831539,-
 0.02312018,-0.00129845,0.05211490,0.00003760,-0.00001239,0.00000906,-0
 .00000749,0.00000067,0.00000557,-0.00000272,0.00000436,-0.00000321,-0.
 00000609,0.00000229,-0.00000221,0.00000317,-0.00000453,-0.00001147,-0.
 00000012,0.00000027,0.00002919,-0.00057812,0.00053947,0.00247561,0.000
 75416,0.00055716,-0.00043004,0.00368147,-0.00844905,0.00275558,-0.0000
 0122,-0.00000097,0.00000008,-0.00000205,0.00000084,-0.00000165,-0.0000
 0220,0.00000027,-0.00000128,-0.00000010,0.00000085,0.00000157,0.000032
 17,-0.00000923,-0.00001728,0.00010189,-0.00048195,0.00110777,-0.000462
 11,0.00005000,0.00008276,-0.00002323,0.00000489,-0.00003514,-0.0000642
 5,-0.00003949,0.00002187,-0.00004101,-0.00004599,-0.00000464,0.0000630
 6,0.00003364,0.00000557,-0.00003276,0.00000396,0.00006196,0.00010764,0
 .00003892,-0.00004678,-0.00007375,-0.00002227,-0.00000123,-0.00001712,
 -0.00002320,-0.00000720,-0.00000939,-0.00000239,-0.00003562,0.00001714
 ,0.00000516,-0.00002938,-0.00008758,0.00000395,0.00004692,-0.00001331,
 -0.00000136,0.00001589,0.00001864,-0.00000670,0.00000837,-0.00002990,-
 0.00000083,0.00001448,0.00000828,0.00003838,-0.00001053,-0.00000564,0.
 00000194,-0.00000197,-0.00001188,0.00000008,-0.00000677,-0.00000604,0.
 00000535,0.00000174,0.00000590,0.00000313,-0.00001029,0.00000957,-0.00
 000620,-0.00000399,0.00000550,0.00000184,-0.00000030,-0.00000537,-0.00
 001188,0.00000251,0.00000156,-0.00001062,0.00001391,0.00000053,-0.0000
 1589,0.00000214,0.00018855,0.00008898,-0.00007707,-0.00008559,-0.00005
 370,-0.00003864,-0.00006488,0.00008573,0.00012271,0.00002748,-0.000013
 13,0.00001771,0.00007810,0.00017537,0.00012436,-0.00017697,0.00000402,
 0.00016282,0.00029174,-0.00013747,0.00006990,0.00003018,0.00002725,-0.
 00033174,0.00001468,-0.00004477,-0.00005057,0.00000521,-0.00000273,0.0
 0000022,0.00000727,-0.00000496,0.00000420,-0.00000698,-0.00000261,-0.0
 0000827,-0.00002000,-0.00005983,-0.00005625,-0.00005708,0.00005127,-0.
 00037075,-0.00023440,0.00009948,0.00038152,0.00040586,-0.00007081,0.00
 008414,-0.00058931,0.00034121,0.00001246,0.00004940,-0.00002597,-0.000
 36639,0.00036430,-0.00029450,-0.00057423,0.00014363,-0.00013442,0.0000
 2602,-0.00012647,0.00000126,-0.00001642,-0.00003428,-0.00013780,0.0000
 4762,-0.00000732,0.00000539,-0.00001902,0.00002496,-0.00002762,0.00003
 304,0.00004785,-0.00004089,0.00001764,-0.13563801,0.11854304,-0.066198
 03,-0.01032172,0.01978537,-0.01134861,0.13946399,0.00000165,0.00002370
 ,0.00001029,0.00000934,-0.00000332,-0.00000297,0.00000013,0.00000023,0
 .00000219,0.00000181,-0.00000102,-0.00000120,0.00000074,0.00000123,0.0
 0000024,0.00000593,-0.00000041,-0.00000144,-0.00048132,0.00019240,0.00
 211543,0.00118400,0.00053197,-0.00119163,0.00234821,-0.00318875,-0.002
 69353,-0.00000130,-0.00000091,-0.00000037,0.00000098,-0.00000076,0.000
 00093,0.00000061,-0.00000085,0.00000026,0.00000026,-0.00000091,-0.0000
 0057,-0.00000603,-0.00000274,0.00000679,-0.00044141,0.00111704,-0.0009
 5646,-0.00111519,0.00006009,0.00012567,-0.00000793,0.00000689,-0.00006
 456,-0.00005674,-0.00000078,0.00000222,-0.00004382,-0.00000693,-0.0000
 6333,0.00008698,0.00008613,0.00005840,-0.00007460,0.00000931,0.0001336
 9,0.00008526,-0.00001489,-0.00003330,-0.00006348,-0.00002714,-0.000025
 48,-0.00002702,-0.00003053,-0.00002344,0.00000457,0.00000424,-0.000078
 18,0.00003448,0.00000493,-0.00006115,-0.00006413,0.00004934,0.00000503
 ,-0.00001264,0.00000609,0.00000745,0.00002237,-0.00001039,0.00001768,-
 0.00003658,-0.00000301,0.00002991,0.00006027,0.00008562,-0.00001367,-0
 .00000530,0.00000632,-0.00000814,-0.00001379,-0.00000057,-0.00000866,-
 0.00000744,0.00000674,0.00000080,0.00000959,0.00000885,-0.00002318,0.0
 0001459,-0.00000832,-0.00000765,0.00000846,0.00000272,-0.00000497,-0.0
 0004020,-0.00002576,0.00000726,-0.00001210,-0.00002611,0.00000109,-0.0
 0000986,-0.00003221,0.00000488,0.00011396,0.00005851,-0.00003963,-0.00
 001420,-0.00003656,-0.00002100,0.00001677,-0.00004418,0.00006919,0.000
 00778,0.00001391,-0.00001268,0.00003556,0.00005298,0.00003870,-0.00006
 378,0.00002311,-0.00034849,-0.00010457,0.00007332,0.00001409,0.0000468
 7,-0.00006073,0.00017549,0.00005921,-0.00005546,0.00006811,0.00000358,
 0.00000147,-0.00000158,-0.00000236,0.00000802,0.00000710,0.00000370,0.
 00000040,0.00000537,-0.00000574,-0.00002002,-0.00001093,0.00005995,0.0
 0002906,0.00021772,0.00003816,-0.00006264,-0.00017602,0.00035024,-0.00
 018053,0.00046820,-0.00050935,0.00028650,-0.00028477,0.00001088,0.0000
 1218,-0.00009147,0.00010712,-0.00009437,-0.00011272,-0.00022314,-0.000
 05882,-0.00019518,-0.00003196,0.00009117,0.00002643,-0.00004462,-0.000
 09730,0.00005761,0.00000492,-0.00000686,-0.00000335,0.00002263,-0.0000
 1898,0.00001104,0.00003058,-0.00003867,0.00001631,0.11605251,-0.193926
 70,0.09092261,-0.00525906,0.00652802,-0.00474170,-0.12524738,0.2040878
 4,-0.00002219,-0.00006957,-0.00001735,-0.00001212,0.00000617,0.0000057
 3,-0.00000190,0.00000594,-0.00000304,-0.00000403,0.00000078,-0.0000033
 4,0.00000359,0.00000049,0.00000030,-0.00000924,0.00000275,-0.00000316,
 0.00289191,-0.00049466,-0.00342099,-0.00156616,-0.00056751,-0.00063357
 ,-0.01762068,0.02399699,-0.01593168,0.00000025,-0.00000086,0.00000070,
 -0.00000173,0.00000109,-0.00000090,-0.00000098,-0.00000003,-0.00000001
 ,-0.00000229,0.00000094,0.00000055,-0.00000235,-0.00000316,-0.00000549
 ,-0.00249610,-0.00222992,0.00411901,0.00061106,0.00001622,0.00016557,-
 0.00010626,-0.00001333,-0.00003619,-0.00000010,0.00004075,0.00007831,0
 .00009243,-0.00002153,-0.00001254,-0.00007767,0.00005653,0.00003141,0.
 00012581,0.00005499,0.00011215,-0.00001594,-0.00002498,-0.00008624,0.0
 0005893,-0.00007727,-0.00000796,0.00001093,-0.00000356,-0.00000408,-0.
 00004105,-0.00002157,-0.00003330,-0.00002290,-0.00000497,-0.00003893,-
 0.00001175,-0.00000948,0.00005782,0.00001062,0.00000688,0.00003709,0.0
 0002993,-0.00000807,-0.00001984,0.00005061,0.00001252,-0.00001089,-0.0
 0004926,-0.00004156,-0.00000628,-0.00000775,-0.00000153,0.00000826,-0.
 00001197,-0.00000039,0.00000239,-0.00001015,0.00001024,0.00001356,-0.0
 0001146,-0.00000271,0.00000451,-0.00001513,0.00000499,0.00000335,-0.00
 002356,-0.00001618,-0.00000700,0.00003028,0.00001452,0.00000086,0.0000
 1046,0.00001552,0.00000189,0.00000715,0.00000898,0.00000291,-0.0000300
 9,0.00008039,0.00002569,0.00001961,0.00001510,0.00000240,-0.00008084,0
 .00006937,0.00001450,0.00002194,-0.00001726,0.00001183,0.00001743,0.00
 000485,-0.00000604,-0.00027491,-0.00008311,0.00014263,0.00013410,-0.00
 004059,0.00000655,0.00009327,0.00003924,-0.00023223,0.00000587,-0.0000
 8199,0.00000926,0.00000199,-0.00000615,0.00000128,0.00000680,-0.000011
 83,-0.00000362,-0.00000352,0.00000339,-0.00000296,-0.00001145,0.000000
 88,-0.00000110,0.00009868,0.00001586,-0.00023711,-0.00015731,-0.000012
 35,0.00026493,0.00002296,0.00017087,-0.00053743,0.00067839,0.00020671,
 -0.00002969,-0.00011094,-0.00000701,-0.00000675,0.00004874,-0.00007140
 ,0.00010513,-0.00011978,-0.00022589,-0.00009520,-0.00003479,-0.0000158
 9,0.00002088,0.00031457,0.00035510,-0.00024957,0.00001384,-0.00002135,
 0.00001948,-0.00000205,-0.00000481,-0.00000077,-0.00007136,0.00003876,
 -0.00011933,-0.06326934,0.08812444,-0.08963895,0.00208548,-0.00351844,
 0.00053279,0.06954378,-0.09453453,0.09898273,0.00000931,0.00002456,0.0
 0000798,0.00000886,-0.00000331,-0.00000111,0.00000138,-0.00000071,0.00
 000581,0.00000124,-0.00000082,0.00000013,0.00000376,0.00000456,0.00000
 514,-0.00000890,0.00000038,-0.00001207,0.00014784,-0.00043361,-0.00032
 721,-0.00006552,-0.00023473,-0.00025397,0.00063631,0.00918078,0.003283
 97,-0.00000036,0.00000072,0.00000122,0.00000157,-0.00000083,0.00000182
 ,0.00000152,-0.00000096,0.00000095,-0.00000276,-0.00000042,-0.00000108
 ,-0.00000310,-0.00000724,0.00000037,-0.00187823,-0.00162823,0.00087165
 ,-0.00006805,0.00004001,0.00011284,-0.00012496,0.00000165,-0.00008228,
 -0.00007047,0.00002251,0.00010817,0.00004354,-0.00002821,-0.00009334,0
 .00002780,0.00008013,0.00007187,0.00005487,0.00005557,0.00018957,0.000
 06515,-0.00000574,-0.00007314,-0.00002134,-0.00008542,-0.00001494,-0.0
 0002844,-0.00003966,-0.00003310,-0.00005832,-0.00003050,-0.00009656,0.
 00001161,-0.00000097,-0.00007454,-0.00006047,0.00003590,0.00008258,0.0
 0000194,0.00000985,0.00003839,0.00002221,-0.00001190,0.00000938,-0.000
 00112,0.00001455,0.00000982,0.00004601,0.00003494,-0.00001897,-0.00000
 397,0.00000943,-0.00000748,-0.00002110,0.00000534,-0.00000600,-0.00000
 985,0.00001075,0.00000351,-0.00000104,-0.00000017,-0.00000436,0.000001
 82,-0.00000385,-0.00000326,-0.00001219,-0.00001150,-0.00000771,-0.0000
 2844,-0.00001288,0.00000733,-0.00000766,-0.00000602,0.00000277,-0.0000
 0899,-0.00001220,0.00000327,0.00000528,-0.00007814,0.00001939,0.000035
 39,0.00003120,0.00001184,0.00015445,0.00006762,0.00012854,-0.00001742,
 0.00000289,-0.00001279,0.00018342,0.00013721,0.00026417,0.00002068,0.0
 0006463,0.00004396,-0.00005175,-0.00000929,-0.00006788,0.00000200,0.00
 001094,-0.00001952,-0.00000918,-0.00004094,-0.00001482,-0.00000474,-0.
 00000984,0.00000252,0.00000037,-0.00001034,-0.00000416,0.00000173,0.,0
 .00000262,-0.00009315,-0.00003131,-0.00010057,-0.00004113,-0.00007902,
 -0.00005408,0.00014923,0.00001933,-0.00005299,0.00070144,0.00000712,-0
 .00055836,0.00022961,0.00004721,0.00028010,0.00007048,0.00000670,0.000
 09089,-0.00003197,-0.00004936,0.00008824,-0.00029641,0.00002596,0.0002
 7699,0.00002735,-0.00002784,-0.00014005,-0.00000842,0.00008310,0.00000
 514,0.00003299,-0.00000667,0.00001381,0.00001780,0.00000007,-0.0000347
 3,-0.00001029,0.00000790,-0.00000402,-0.04709721,-0.04278680,-0.023671
 15,-0.00343785,-0.02401254,-0.01550866,0.00285498,0.01318237,0.0092696
 7,0.04801082,0.00001496,0.00002512,-0.00000253,0.00000136,0.00000022,-
 0.00000139,-0.00000061,-0.00000130,0.00000071,0.00000136,-0.00000036,0
 .00000008,-0.00000079,-0.00000282,-0.00000205,0.00000981,0.00000082,0.
 00000428,0.00043649,-0.00146275,0.00257053,0.00095366,-0.00028858,-0.0
 0181028,0.00106266,0.00551898,0.00121649,-0.00000127,-0.00000039,0.000
 00020,0.00000016,-0.00000036,0.,-0.00000006,0.00000010,-0.00000013,0.0
 0000127,-0.00000013,0.00000017,-0.00000398,0.00000248,0.00000170,-0.00
 012010,0.00037169,-0.00013110,-0.00115967,0.00006396,0.00031139,-0.000
 08458,0.00004071,-0.00003390,-0.00005894,0.00006780,0.00007838,0.00010
 210,-0.00002408,-0.00013752,0.00005546,0.00020400,0.00005419,0.0001355
 6,-0.00005267,0.00003748,0.00007097,-0.00010907,-0.00012900,-0.0000447
 1,-0.00012159,-0.00002539,-0.00002063,-0.00006185,-0.00002266,-0.00010
 106,0.00001203,-0.00002809,-0.00003417,0.00001792,-0.00001321,-0.00006
 190,0.00010621,0.00006477,-0.00000128,0.00002488,0.00004579,0.00003173
 ,-0.00003548,0.00000590,0.00005912,0.00000834,-0.00002160,-0.00001148,
 0.00011231,-0.00000788,-0.00000646,0.00001984,-0.00000776,-0.00002079,
 0.00001148,-0.00000069,-0.00001733,0.00002302,0.00001347,-0.00001844,-
 0.00000875,0.00001350,-0.00002590,0.00001453,0.00000654,-0.00002193,-0
 .00001376,-0.00000167,0.00000719,-0.00003335,-0.00000183,-0.00000006,-
 0.00003342,-0.00000065,0.00000301,-0.00004575,0.00001093,0.00007702,-0
 .00001727,-0.00011292,-0.00003243,-0.00002060,-0.00001933,0.00002912,-
 0.00001029,0.00004040,-0.00000592,0.00000626,-0.00000809,0.00002232,0.
 00001693,0.00006830,0.00002515,-0.00005833,-0.00021240,-0.00010062,0.0
 0008782,-0.00000321,-0.00004377,-0.00005074,0.00018415,-0.00000200,0.0
 0004308,0.00001224,-0.00000325,-0.00000269,-0.00000499,-0.00000331,-0.
 00000061,0.00000007,-0.00000081,-0.00000281,-0.00000010,-0.00001274,-0
 .00001443,-0.00004922,0.00002392,-0.00014481,0.00025426,0.00011491,0.0
 0004425,-0.00017520,0.00068439,-0.00010063,-0.00003412,-0.00032504,0.0
 0028158,-0.00005384,0.00002096,-0.00003269,0.00004216,0.00006275,-0.00
 004728,-0.00016288,-0.00022380,-0.00007226,-0.00006054,0.00008593,0.00
 006136,-0.00008438,0.00010216,0.00026447,0.00011040,0.00004263,-0.0000
 4380,0.00007654,0.00001851,-0.00001980,-0.00000054,-0.00000764,-0.0000
 1314,-0.00002049,-0.04373669,-0.23961838,-0.11923792,0.00064366,-0.003
 91877,-0.00215227,-0.00506228,-0.01538219,-0.01111680,0.04647612,0.254
 41579,0.00000144,-0.00006555,-0.00001809,-0.00001553,0.00001260,0.0000
 0975,-0.00000240,0.00000479,-0.00000426,-0.00000591,0.00000188,-0.0000
 0245,0.00000202,0.00000348,0.00000330,-0.00001273,0.00000330,-0.000010
 31,0.00170604,0.00344930,-0.00227479,-0.00112384,0.00118536,0.00223473
 ,-0.00468153,-0.02680489,-0.01766184,0.00000111,-0.00000074,0.00000133
 ,-0.00000301,0.00000094,-0.00000084,-0.00000127,0.00000019,0.00000031,
 -0.00000410,0.00000126,0.00000132,0.00001337,-0.00000671,-0.00000335,-
 0.00071599,0.00250019,0.00139986,0.00136302,-0.00023177,-0.00029260,0.
 00009607,-0.00002684,0.00007719,0.00006792,-0.00006874,-0.00008984,-0.
 00004453,0.00006642,0.00017689,0.00003966,-0.00015157,-0.00018804,-0.0
 0004121,-0.00006013,-0.00009123,-0.00008723,0.00011219,0.00011755,0.00
 000558,0.00013434,0.00008817,0.00000181,0.00004489,0.00004489,0.000006
 82,0.00001762,0.00006575,0.00000706,0.00000211,0.00002649,0.00006266,-
 0.00008388,0.00000215,0.00000317,-0.00002645,-0.00002621,-0.00003479,0
 .00000725,-0.00001209,-0.00002228,-0.00000585,0.00000496,-0.00002039,-
 0.00012534,-0.00003491,0.00000803,-0.00001392,0.00000818,0.00002738,-0
 .00001027,0.00000399,0.00001653,-0.00001846,-0.00000893,0.00001011,0.0
 0000910,-0.00000527,0.00000437,-0.00000224,0.00000135,0.00001194,0.000
 01147,0.00000327,-0.00000615,0.00003941,0.00001427,0.00000777,0.000042
 57,0.00003081,0.00000357,0.00002915,0.00000333,-0.00014634,0.00007562,
 0.00014401,0.00004260,0.00001822,0.00001752,0.00001552,0.00003585,-0.0
 0002398,0.00001553,-0.00000654,0.00000946,-0.00000061,0.00001424,-0.00
 003385,-0.00009093,0.00010365,0.00014693,0.00003603,-0.00005507,0.0000
 4163,-0.00001287,0.00003405,-0.00013141,-0.00000199,-0.00002879,-0.000
 01492,-0.00000028,-0.00000136,0.00000306,0.00000182,0.00000414,0.00000
 078,-0.00000844,-0.00000191,-0.00000519,0.00000869,0.00000429,0.000015
 36,0.00009658,0.00015522,-0.00009995,-0.00007668,-0.00009041,0.0000883
 8,-0.00057535,0.00047800,-0.00038864,0.00003837,-0.00045727,-0.0000922
 9,-0.00012959,0.00001463,-0.00003532,-0.00022391,-0.00009342,-0.000147
 90,0.00016864,-0.00003802,-0.00013118,-0.00001524,0.00003637,0.0000548
 8,-0.00010476,-0.00060753,-0.00030445,-0.00007213,0.00008847,-0.000145
 48,-0.00000829,0.00001116,0.00004540,0.00002387,-0.00000249,0.00001506
 ,-0.02532805,-0.12505144,-0.11268820,0.00085844,0.00351058,0.00145217,
 0.00280630,0.01120973,0.00665709,0.02603849,0.13066354,0.12195625\\-0.
 00000158,0.00000446,0.00000583,0.00000684,-0.00000338,-0.00000259,-0.0
 0000216,0.00000497,-0.00000155,-0.00000053,0.00000432,-0.00000585,0.00
 000513,0.00000490,-0.00000319,0.00000170,0.00001043,-0.00000373,-0.000
 01756,-0.00000493,0.00001583,0.00005363,0.00003568,0.00001487,0.000010
 31,-0.00000273,0.00000126,-0.00000227,0.00000439,-0.00000272,0.0000011
 7,0.00000378,-0.00000206,0.00000298,0.00000702,-0.00000382,0.00000276,
 0.00000736,-0.00000255,-0.00000097,0.00000316,-0.00000282,-0.00001144,
 0.00000652,-0.00001859,-0.00001924,-0.00008517,-0.00002293,-0.00002446
 ,-0.00000267,-0.00000706,-0.00000871,0.00001797,-0.00000169,0.00001269
 ,-0.00002664,0.00001602,0.00005113,-0.00001517,-0.00002230,-0.00000867
 ,0.00004982,0.00002994,-0.00002457,-0.00000997,-0.00000458,-0.00000856
 ,0.00001949,0.00001161,0.00000088,-0.00000357,0.00000137,0.00001450,-0
 .00000795,0.00000955,-0.00000317,-0.00000703,-0.00000003,-0.00000258,-
 0.00000118,0.00000082,0.00001406,-0.00000646,-0.00000341,-0.00000018,-
 0.00000062,0.00000538,0.00000584,-0.00002282,0.00000328,-0.00000149,0.
 00001738,0.00001376,-0.00000341,-0.00000493,0.00000390,-0.00000418,-0.
 00000663,0.00000724,-0.00000301,-0.00000937,-0.00000062,-0.00000080,-0
 .00000312,-0.00000443,-0.00000337,0.00000265,0.00000124,0.00000132,-0.
 00000139,0.00000279,0.00000783,0.00000256,-0.00000364,0.00001092,-0.00
 000769,-0.00001746,0.00000123,-0.00001373,-0.00000129,-0.00000347,-0.0
 0001850,0.00000928,-0.00000280,0.00001159,-0.00000468,0.00000550,0.000
 01935,0.00000148,0.00000503,-0.00000542,-0.00000109,-0.00001708,0.0000
 0456,0.00000846,-0.00000703,0.00000591,0.00000194,0.00000564,-0.000001
 42,0.00000740,0.00000471,0.00000182,-0.00000840,-0.00000248,0.00000095
 ,0.00000262,-0.00000593,0.00000090,0.00000747,-0.00000592,-0.00000900,
 0.00000696,-0.00000194,0.00000493,-0.00000006,0.00000081,0.00000898,-0
 .00000098,0.00000104,-0.00000524,-0.00001353,-0.00001588,-0.00000493,0
 .00000833,0.00000225,0.00000629,-0.00001626,0.00001436,-0.00000199,-0.
 00000947,0.00000099,0.00000193,-0.00000246,-0.00000056,-0.00000333,0.0
 0000846,-0.00000483,0.00001763,0.00000177,0.00000171,0.00000104,0.0000
 0009,-0.00001501,0.00000575,-0.00002259,0.00000248,-0.00000495,-0.0000
 0599,-0.00000096,0.00000502,-0.00000195,-0.00000085,-0.00000160,-0.000
 00003,0.00000559,-0.00001023,0.00003022,-0.00000737,-0.00000098,-0.000
 00206,-0.00000853,-0.00000094,-0.00000955,-0.00000148,0.00001219,-0.00
 000119\\\@


 ON INDUCTION, OR "WHY DO YOU BELIEVE THE SUN WILL RISE TOMORROW?":

 ... THE FARMER WHO HAS FED THE CHICKEN EVERY DAY THROUGHOUT ITS
 LIFE AT LAST WRINGS ITS NECK INSTEAD, SHOWING THAT MORE REFINED VIEWS
 AS TO THE UNIFORMITY OF NATURE WOULD HAVE BEEN USEFUL TO THE CHICKEN.

                               -- BERTRAND RUSSELL
 Job cpu time:       1 days 12 hours 17 minutes 28.3 seconds.
 Elapsed time:       0 days  1 hours 30 minutes 54.6 seconds.
 File lengths (MBytes):  RWF=   6176 Int=      0 D2E=      0 Chk=     68 Scr=      8
 Normal termination of Gaussian 16 at Wed Mar  5 15:15:45 2025.
