 Entering Gaussian System, Link 0=/sysapps/ubuntu-applications/gaussian-new/avx/g16//g16
 Input=i2-keto.in
 Output=i2-keto.log
 Initial command:
 /sysapps/ubuntu-applications/gaussian-new/avx/g16/l1.exe "/data/temp-scratch/selhajj1/7652927/Gau-95049.inp" -scrdir="/data/temp-scratch/selhajj1/7652927/"
 Entering Link 1 = /sysapps/ubuntu-applications/gaussian-new/avx/g16/l1.exe PID=     95051.
  
 Copyright (c) 1988,1990,1992,1993,1995,1998,2003,2009,2016,
            Gaussian, Inc.  All Rights Reserved.
  
 This is part of the Gaussian(R) 16 program.  It is based on
 the Gaussian(R) 09 system (copyright 2009, Gaussian, Inc.),
 the Gaussian(R) 03 system (copyright 2003, Gaussian, Inc.),
 the Gaussian(R) 98 system (copyright 1998, Gaussian, Inc.),
 the Gaussian(R) 94 system (copyright 1995, Gaussian, Inc.),
 the Gaussian 92(TM) system (copyright 1992, Gaussian, Inc.),
 the Gaussian 90(TM) system (copyright 1990, Gaussian, Inc.),
 the Gaussian 88(TM) system (copyright 1988, Gaussian, Inc.),
 the Gaussian 86(TM) system (copyright 1986, Carnegie Mellon
 University), and the Gaussian 82(TM) system (copyright 1983,
 Carnegie Mellon University). Gaussian is a federally registered
 trademark of Gaussian, Inc.
  
 This software contains proprietary and confidential information,
 including trade secrets, belonging to Gaussian, Inc.
  
 This software is provided under written license and may be
 used, copied, transmitted, or stored only in accord with that
 written license.
  
 The following legend is applicable only to US Government
 contracts under FAR:
  
                    RESTRICTED RIGHTS LEGEND
  
 Use, reproduction and disclosure by the US Government is
 subject to restrictions as set forth in subparagraphs (a)
 and (c) of the Commercial Computer Software - Restricted
 Rights clause in FAR 52.227-19.
  
 Gaussian, Inc.
 340 Quinnipiac St., Bldg. 40, Wallingford CT 06492
  
  
 ---------------------------------------------------------------
 Warning -- This program may not be used in any manner that
 competes with the business of Gaussian, Inc. or will provide
 assistance to any competitor of Gaussian, Inc.  The licensee
 of this program is prohibited from giving any competitor of
 Gaussian, Inc. access to this program.  By using this program,
 the user acknowledges that Gaussian, Inc. is engaged in the
 business of creating and licensing software in the field of
 computational chemistry and represents and warrants to the
 licensee that it is not a competitor of Gaussian, Inc. and that
 it will not use this program in any manner prohibited above.
 ---------------------------------------------------------------
  

 Cite this work as:
 Gaussian 16, Revision A.03,
 M. J. Frisch, G. W. Trucks, H. B. Schlegel, G. E. Scuseria, 
 M. A. Robb, J. R. Cheeseman, G. Scalmani, V. Barone, 
 G. A. Petersson, H. Nakatsuji, X. Li, M. Caricato, A. V. Marenich, 
 J. Bloino, B. G. Janesko, R. Gomperts, B. Mennucci, H. P. Hratchian, 
 J. V. Ortiz, A. F. Izmaylov, J. L. Sonnenberg, D. Williams-Young, 
 F. Ding, F. Lipparini, F. Egidi, J. Goings, B. Peng, A. Petrone, 
 T. Henderson, D. Ranasinghe, V. G. Zakrzewski, J. Gao, N. Rega, 
 G. Zheng, W. Liang, M. Hada, M. Ehara, K. Toyota, R. Fukuda, 
 J. Hasegawa, M. Ishida, T. Nakajima, Y. Honda, O. Kitao, H. Nakai, 
 T. Vreven, K. Throssell, J. A. Montgomery, Jr., J. E. Peralta, 
 F. Ogliaro, M. J. Bearpark, J. J. Heyd, E. N. Brothers, K. N. Kudin, 
 V. N. Staroverov, T. A. Keith, R. Kobayashi, J. Normand, 
 K. Raghavachari, A. P. Rendell, J. C. Burant, S. S. Iyengar, 
 J. Tomasi, M. Cossi, J. M. Millam, M. Klene, C. Adamo, R. Cammi, 
 J. W. Ochterski, R. L. Martin, K. Morokuma, O. Farkas, 
 J. B. Foresman, and D. J. Fox, Gaussian, Inc., Wallingford CT, 2016.
 
 ******************************************
 Gaussian 16:  ES64L-G16RevA.03 25-Dec-2016
                 7-Mar-2025 
 ******************************************
 %chk=i2-keto.chk
 %mem=616Gb
 %nprocshared=24
 Will use up to   24 processors via shared memory.
 ----------------------------------------------------------------------
 #P UMN15/genecp scf=(maxcyc=500) freq scrf=(smd,solvent=DiChloroEthane
 )
 ----------------------------------------------------------------------
 1/10=4,30=1,38=1/1,3;
 2/12=2,17=6,18=5,40=1/2;
 3/5=7,11=2,16=1,17=8,25=1,30=1,70=32201,71=2,72=10,74=-73,116=2,140=1/1,2,3;
 4//1;
 5/5=2,7=500,38=5,53=10,98=1/2;
 8/6=4,10=90,11=11/1;
 11/6=1,8=1,9=11,15=111,16=1/1,2,10;
 10/6=1/2;
 6/7=2,8=2,9=2,10=2,28=1/1;
 7/8=1,10=1,25=1/1,2,3,16;
 1/10=4,30=1/3;
 99//99;
 Leave Link    1 at Fri Mar  7 02:59:14 2025, MaxMem= 82678120448 cpu:               3.7 elap:               0.2
 (Enter /sysapps/ubuntu-applications/gaussian-new/avx/g16/l101.exe)
 ---
 Opt
 ---
 Symbolic Z-matrix:
 Charge =  0 Multiplicity = 2
 C                    -5.33106  -1.09061   0.8949 
 C                    -5.82813  -1.79683  -0.20803 
 C                    -6.86621  -2.71134  -0.02756 
 C                    -7.40806  -2.91692   1.244 
 C                    -6.9082   -2.21401   2.34319 
 C                    -5.86514  -1.30394   2.17199 
 C                    -2.05588  -0.26452  -0.29735 
 C                    -1.31372  -0.70458   0.90763 
 C                    -1.4101    0.24132  -1.51556 
 H                    -5.39899  -1.63911  -1.20019 
 H                    -7.25129  -3.26759  -0.8845 
 H                    -8.21967  -3.63498   1.38011 
 H                    -7.32365  -2.38169   3.3388 
 H                    -5.45869  -0.76079   3.02973 
 O                    -0.20511   0.4962   -1.51808 
 O                    -0.25248  -0.16563   1.20656 
 O                     1.23178   2.36952   0.20506 
 O                     2.51023  -1.98525   1.34683 
 O                     0.23441  -2.2121   -0.73599 
 S                     0.81667  -2.35205  -2.08805 
 S                     1.79414   2.87051  -1.07383 
 S                     3.01929  -1.13733   2.45039 
 O                     2.0036   -1.47483  -2.23489 
 O                    -0.12404  -2.35997  -3.1959 
 O                     2.53388   1.7958   -1.76626 
 O                     0.91104   3.69934  -1.87956 
 O                     2.79006   0.29209   2.12972 
 O                     2.725    -1.56448   3.8027 
 C                     4.83937  -1.29763   2.2777 
 C                     3.10453   4.02032  -0.50371 
 C                     1.54368  -4.03673  -2.08145 
 F                     5.45574  -0.53336   3.16631 
 F                     5.2015   -0.91281   1.05734 
 F                     5.21219  -2.55535   2.45694 
 F                     3.74234   4.54519  -1.53715 
 F                     3.9726    3.37338   0.25981 
 F                     2.55109   4.99742   0.20433 
 F                     0.59318  -4.93463  -1.86433 
 F                     2.45757  -4.13707  -1.12951 
 F                     2.11123  -4.28626  -3.25254 
 C                    -4.21767  -0.09457   0.72977 
 H                    -3.64432   0.01037   1.66341 
 C                    -4.74538   1.36504   0.4091 
 C                    -5.56176   1.86374   1.52853 
 C                    -5.53295   1.32319  -0.83165 
 C                    -2.15882   3.78036  -0.88419 
 C                    -1.66065   2.92585   1.29861 
 C                    -1.31077   3.74985   0.20531 
 H                    -1.94776   4.37708  -1.77154 
 H                    -1.02363   2.84126   2.18117 
 H                    -0.38831   4.32764   0.23072 
 N                    -6.18951   2.23371   2.42585 
 N                    -6.1439    1.23541  -1.80935 
 N                    -3.55579   2.26494   0.25675 
 N                    -2.76353   2.21044   1.31438 
 C                    -3.32196   3.00803  -0.8311 
 H                    -4.05536   2.97977  -1.63993 
 O                    -3.38544  -0.4228   -0.36584 
 Yb                    1.79291  -0.07758  -0.16689 
 C                    -2.22889   0.38562  -2.75918 
 H                    -2.13784  -0.57431  -3.29665 
 H                    -3.29436   0.57531  -2.5797 
 H                    -1.78327   1.16519  -3.39021 
 C                    -1.86627  -1.84277   1.711 
 H                    -2.20333  -1.47634   2.69442 
 H                    -2.68919  -2.36898   1.21081 
 H                    -1.03241  -2.53707   1.88877 
 
 ITRead=  0  0  0  0  0  0  0  0  0  0  0  0  0  0  0  0  0  0  0  0
 ITRead=  0  0  0  0  0  0  0  0  0  0  0  0  0  0  0  0  0  0  0  0
 ITRead=  0  0  0  0  0  0  0  0  0  0  0  0  0  0  0  0  0  0  0  0
 ITRead=  0  0  0  0  0  0  0
 MicOpt= -1 -1 -1 -1 -1 -1 -1 -1 -1 -1 -1 -1 -1 -1 -1 -1 -1 -1 -1 -1
 MicOpt= -1 -1 -1 -1 -1 -1 -1 -1 -1 -1 -1 -1 -1 -1 -1 -1 -1 -1 -1 -1
 MicOpt= -1 -1 -1 -1 -1 -1 -1 -1 -1 -1 -1 -1 -1 -1 -1 -1 -1 -1 -1 -1
 MicOpt= -1 -1 -1 -1 -1 -1 -1
 NAtoms=     67 NQM=       67 NQMF=       0 NMMI=      0 NMMIF=      0
                NMic=       0 NMicF=      0.
                    Isotopes and Nuclear Properties:
 (Nuclear quadrupole moments (NQMom) in fm**2, nuclear magnetic moments (NMagM)
  in nuclear magnetons)

  Atom         1           2           3           4           5           6           7           8           9          10
 IAtWgt=          12          12          12          12          12          12          12          12          12           1
 AtmWgt=  12.0000000  12.0000000  12.0000000  12.0000000  12.0000000  12.0000000  12.0000000  12.0000000  12.0000000   1.0078250
 NucSpn=           0           0           0           0           0           0           0           0           0           1
 AtZEff=  -0.0000000  -0.0000000  -0.0000000  -0.0000000  -0.0000000  -0.0000000  -0.0000000  -0.0000000  -0.0000000  -0.0000000
 NQMom=    0.0000000   0.0000000   0.0000000   0.0000000   0.0000000   0.0000000   0.0000000   0.0000000   0.0000000   0.0000000
 NMagM=    0.0000000   0.0000000   0.0000000   0.0000000   0.0000000   0.0000000   0.0000000   0.0000000   0.0000000   2.7928460
 AtZNuc=   6.0000000   6.0000000   6.0000000   6.0000000   6.0000000   6.0000000   6.0000000   6.0000000   6.0000000   1.0000000

  Atom        11          12          13          14          15          16          17          18          19          20
 IAtWgt=           1           1           1           1          16          16          16          16          16          32
 AtmWgt=   1.0078250   1.0078250   1.0078250   1.0078250  15.9949146  15.9949146  15.9949146  15.9949146  15.9949146  31.9720718
 NucSpn=           1           1           1           1           0           0           0           0           0           0
 AtZEff=  -0.0000000  -0.0000000  -0.0000000  -0.0000000  -0.0000000  -0.0000000  -0.0000000  -0.0000000  -0.0000000  -0.0000000
 NQMom=    0.0000000   0.0000000   0.0000000   0.0000000   0.0000000   0.0000000   0.0000000   0.0000000   0.0000000   0.0000000
 NMagM=    2.7928460   2.7928460   2.7928460   2.7928460   0.0000000   0.0000000   0.0000000   0.0000000   0.0000000   0.0000000
 AtZNuc=   1.0000000   1.0000000   1.0000000   1.0000000   8.0000000   8.0000000   8.0000000   8.0000000   8.0000000  16.0000000

  Atom        21          22          23          24          25          26          27          28          29          30
 IAtWgt=          32          32          16          16          16          16          16          16          12          12
 AtmWgt=  31.9720718  31.9720718  15.9949146  15.9949146  15.9949146  15.9949146  15.9949146  15.9949146  12.0000000  12.0000000
 NucSpn=           0           0           0           0           0           0           0           0           0           0
 AtZEff=  -0.0000000  -0.0000000  -0.0000000  -0.0000000  -0.0000000  -0.0000000  -0.0000000  -0.0000000  -0.0000000  -0.0000000
 NQMom=    0.0000000   0.0000000   0.0000000   0.0000000   0.0000000   0.0000000   0.0000000   0.0000000   0.0000000   0.0000000
 NMagM=    0.0000000   0.0000000   0.0000000   0.0000000   0.0000000   0.0000000   0.0000000   0.0000000   0.0000000   0.0000000
 AtZNuc=  16.0000000  16.0000000   8.0000000   8.0000000   8.0000000   8.0000000   8.0000000   8.0000000   6.0000000   6.0000000

  Atom        31          32          33          34          35          36          37          38          39          40
 IAtWgt=          12          19          19          19          19          19          19          19          19          19
 AtmWgt=  12.0000000  18.9984032  18.9984032  18.9984032  18.9984032  18.9984032  18.9984032  18.9984032  18.9984032  18.9984032
 NucSpn=           0           1           1           1           1           1           1           1           1           1
 AtZEff=  -0.0000000  -0.0000000  -0.0000000  -0.0000000  -0.0000000  -0.0000000  -0.0000000  -0.0000000  -0.0000000  -0.0000000
 NQMom=    0.0000000   0.0000000   0.0000000   0.0000000   0.0000000   0.0000000   0.0000000   0.0000000   0.0000000   0.0000000
 NMagM=    0.0000000   2.6288670   2.6288670   2.6288670   2.6288670   2.6288670   2.6288670   2.6288670   2.6288670   2.6288670
 AtZNuc=   6.0000000   9.0000000   9.0000000   9.0000000   9.0000000   9.0000000   9.0000000   9.0000000   9.0000000   9.0000000

  Atom        41          42          43          44          45          46          47          48          49          50
 IAtWgt=          12           1          12          12          12          12          12          12           1           1
 AtmWgt=  12.0000000   1.0078250  12.0000000  12.0000000  12.0000000  12.0000000  12.0000000  12.0000000   1.0078250   1.0078250
 NucSpn=           0           1           0           0           0           0           0           0           1           1
 AtZEff=  -0.0000000  -0.0000000  -0.0000000  -0.0000000  -0.0000000  -0.0000000  -0.0000000  -0.0000000  -0.0000000  -0.0000000
 NQMom=    0.0000000   0.0000000   0.0000000   0.0000000   0.0000000   0.0000000   0.0000000   0.0000000   0.0000000   0.0000000
 NMagM=    0.0000000   2.7928460   0.0000000   0.0000000   0.0000000   0.0000000   0.0000000   0.0000000   2.7928460   2.7928460
 AtZNuc=   6.0000000   1.0000000   6.0000000   6.0000000   6.0000000   6.0000000   6.0000000   6.0000000   1.0000000   1.0000000

  Atom        51          52          53          54          55          56          57          58          59          60
 IAtWgt=           1          14          14          14          14          12           1          16         174          12
 AtmWgt=   1.0078250  14.0030740  14.0030740  14.0030740  14.0030740  12.0000000   1.0078250  15.9949146 173.9390000  12.0000000
 NucSpn=           1           2           2           2           2           0           1           0           0           0
 AtZEff=  -0.0000000  -0.0000000  -0.0000000  -0.0000000  -0.0000000  -0.0000000  -0.0000000  -0.0000000  -0.0000000  -0.0000000
 NQMom=    0.0000000   2.0440000   2.0440000   2.0440000   2.0440000   0.0000000   0.0000000   0.0000000   0.0000000   0.0000000
 NMagM=    2.7928460   0.4037610   0.4037610   0.4037610   0.4037610   0.0000000   2.7928460   0.0000000   0.0000000   0.0000000
 AtZNuc=   1.0000000   7.0000000   7.0000000   7.0000000   7.0000000   6.0000000   1.0000000   8.0000000  70.0000000   6.0000000

  Atom        61          62          63          64          65          66          67
 IAtWgt=           1           1           1          12           1           1           1
 AtmWgt=   1.0078250   1.0078250   1.0078250  12.0000000   1.0078250   1.0078250   1.0078250
 NucSpn=           1           1           1           0           1           1           1
 AtZEff=  -0.0000000  -0.0000000  -0.0000000  -0.0000000  -0.0000000  -0.0000000  -0.0000000
 NQMom=    0.0000000   0.0000000   0.0000000   0.0000000   0.0000000   0.0000000   0.0000000
 NMagM=    2.7928460   2.7928460   2.7928460   0.0000000   2.7928460   2.7928460   2.7928460
 AtZNuc=   1.0000000   1.0000000   1.0000000   6.0000000   1.0000000   1.0000000   1.0000000
 Leave Link  101 at Fri Mar  7 02:59:15 2025, MaxMem= 82678120448 cpu:               7.3 elap:               0.3
 (Enter /sysapps/ubuntu-applications/gaussian-new/avx/g16/l103.exe)

 GradGradGradGradGradGradGradGradGradGradGradGradGradGradGradGradGradGrad
 Berny optimization.
 Initialization pass.
 Trust Radius=3.00D-01 FncErr=1.00D-07 GrdErr=1.00D-07 EigMax=2.50D+02 EigMin=1.00D-04
 Number of steps in this run=      2 maximum allowed number of steps=      2.
 GradGradGradGradGradGradGradGradGradGradGradGradGradGradGradGradGradGrad

 Leave Link  103 at Fri Mar  7 02:59:15 2025, MaxMem= 82678120448 cpu:               1.3 elap:               0.1
 (Enter /sysapps/ubuntu-applications/gaussian-new/avx/g16/l202.exe)
 Stoichiometry    C22H16F9N4O12S3Yb(2)
 Framework group  C1[X(C22H16F9N4O12S3Yb)]
 Deg. of freedom   195
 Full point group                 C1      NOp   1
 Largest Abelian subgroup         C1      NOp   1
 Largest concise Abelian subgroup C1      NOp   1
                         Standard orientation:                         
 ---------------------------------------------------------------------
 Center     Atomic      Atomic             Coordinates (Angstroms)
 Number     Number       Type             X           Y           Z
 ---------------------------------------------------------------------
      1          6           0       -5.331061   -1.090608    0.894895
      2          6           0       -5.828133   -1.796833   -0.208028
      3          6           0       -6.866212   -2.711339   -0.027556
      4          6           0       -7.408055   -2.916918    1.244002
      5          6           0       -6.908197   -2.214007    2.343187
      6          6           0       -5.865136   -1.303940    2.171986
      7          6           0       -2.055881   -0.264515   -0.297353
      8          6           0       -1.313723   -0.704575    0.907625
      9          6           0       -1.410099    0.241316   -1.515563
     10          1           0       -5.398993   -1.639113   -1.200191
     11          1           0       -7.251290   -3.267589   -0.884500
     12          1           0       -8.219667   -3.634975    1.380112
     13          1           0       -7.323651   -2.381686    3.338796
     14          1           0       -5.458689   -0.760785    3.029731
     15          8           0       -0.205114    0.496200   -1.518082
     16          8           0       -0.252478   -0.165629    1.206562
     17          8           0        1.231780    2.369516    0.205059
     18          8           0        2.510232   -1.985254    1.346829
     19          8           0        0.234408   -2.212104   -0.735988
     20         16           0        0.816668   -2.352045   -2.088046
     21         16           0        1.794144    2.870511   -1.073830
     22         16           0        3.019286   -1.137326    2.450386
     23          8           0        2.003596   -1.474829   -2.234886
     24          8           0       -0.124041   -2.359974   -3.195903
     25          8           0        2.533881    1.795804   -1.766263
     26          8           0        0.911043    3.699337   -1.879556
     27          8           0        2.790063    0.292087    2.129723
     28          8           0        2.725003   -1.564478    3.802702
     29          6           0        4.839373   -1.297629    2.277699
     30          6           0        3.104528    4.020317   -0.503708
     31          6           0        1.543676   -4.036728   -2.081447
     32          9           0        5.455744   -0.533359    3.166313
     33          9           0        5.201497   -0.912814    1.057339
     34          9           0        5.212194   -2.555345    2.456939
     35          9           0        3.742335    4.545191   -1.537148
     36          9           0        3.972604    3.373384    0.259810
     37          9           0        2.551092    4.997416    0.204332
     38          9           0        0.593180   -4.934633   -1.864327
     39          9           0        2.457569   -4.137070   -1.129514
     40          9           0        2.111229   -4.286264   -3.252536
     41          6           0       -4.217666   -0.094568    0.729770
     42          1           0       -3.644318    0.010367    1.663413
     43          6           0       -4.745375    1.365044    0.409097
     44          6           0       -5.561759    1.863744    1.528525
     45          6           0       -5.532953    1.323185   -0.831645
     46          6           0       -2.158824    3.780364   -0.884187
     47          6           0       -1.660651    2.925847    1.298605
     48          6           0       -1.310765    3.749852    0.205306
     49          1           0       -1.947763    4.377083   -1.771537
     50          1           0       -1.023630    2.841256    2.181173
     51          1           0       -0.388312    4.327644    0.230717
     52          7           0       -6.189507    2.233706    2.425852
     53          7           0       -6.143902    1.235406   -1.809353
     54          7           0       -3.555792    2.264937    0.256753
     55          7           0       -2.763529    2.210445    1.314376
     56          6           0       -3.321961    3.008027   -0.831098
     57          1           0       -4.055362    2.979766   -1.639928
     58          8           0       -3.385436   -0.422799   -0.365837
     59         70           0        1.792905   -0.077576   -0.166888
     60          6           0       -2.228894    0.385617   -2.759183
     61          1           0       -2.137839   -0.574310   -3.296653
     62          1           0       -3.294365    0.575306   -2.579698
     63          1           0       -1.783265    1.165188   -3.390213
     64          6           0       -1.866271   -1.842773    1.711001
     65          1           0       -2.203328   -1.476341    2.694422
     66          1           0       -2.689191   -2.368979    1.210805
     67          1           0       -1.032409   -2.537066    1.888767
 ---------------------------------------------------------------------
 Rotational constants (GHZ):           0.0646526           0.0376733           0.0312921
 Leave Link  202 at Fri Mar  7 02:59:15 2025, MaxMem= 82678120448 cpu:               0.2 elap:               0.0
 (Enter /sysapps/ubuntu-applications/gaussian-new/avx/g16/l301.exe)
 General basis read from cards:  (5D, 7F)
 Centers:      10     11     12     13     14     42     49     50     51     57
 Centers:      61     62     63     65     66     67
 S 3 1.00
     Exponent=  1.3010701000D+01 Coefficients=  1.9682158000D-02
     Exponent=  1.9622572000D+00 Coefficients=  1.3796524000D-01
     Exponent=  4.4453796000D-01 Coefficients=  4.7831935000D-01
 S 1 1.00
     Exponent=  1.2194962000D-01 Coefficients=  1.0000000000D+00
 P 1 1.00
     Exponent=  8.0000000000D-01 Coefficients=  1.0000000000D+00
 ****
 Centers:       1      2      3      4      5      6      7      8      9     29
 Centers:      30     31     41     43     44     45     46     47     48     56
 Centers:      60     64
 S 5 1.00
     Exponent=  1.2384016938D+03 Coefficients=  5.4568832082D-03
     Exponent=  1.8629004992D+02 Coefficients=  4.0638409211D-02
     Exponent=  4.2251176346D+01 Coefficients=  1.8025593888D-01
     Exponent=  1.1676557932D+01 Coefficients=  4.6315121755D-01
     Exponent=  3.5930506482D+00 Coefficients=  4.4087173314D-01
 S 1 1.00
     Exponent=  4.0245147363D-01 Coefficients=  1.0000000000D+00
 S 1 1.00
     Exponent=  1.3090182668D-01 Coefficients=  1.0000000000D+00
 P 3 1.00
     Exponent=  9.4680970621D+00 Coefficients=  3.8387871728D-02
     Exponent=  2.0103545142D+00 Coefficients=  2.1117025112D-01
     Exponent=  5.4771004707D-01 Coefficients=  5.1328172114D-01
 P 1 1.00
     Exponent=  1.5268613795D-01 Coefficients=  1.0000000000D+00
 D 1 1.00
     Exponent=  8.0000000000D-01 Coefficients=  1.0000000000D+00
 ****
 Centers:      52     53     54     55
 S 5 1.00
     Exponent=  1.7128415853D+03 Coefficients= -5.3934125305D-03
     Exponent=  2.5764812677D+02 Coefficients= -4.0221581118D-02
     Exponent=  5.8458245853D+01 Coefficients= -1.7931144990D-01
     Exponent=  1.6198367905D+01 Coefficients= -4.6376317823D-01
     Exponent=  5.0052600809D+00 Coefficients= -4.4171422662D-01
 S 1 1.00
     Exponent=  5.8731856571D-01 Coefficients=  1.0000000000D+00
 S 1 1.00
     Exponent=  1.8764592253D-01 Coefficients=  1.0000000000D+00
 P 3 1.00
     Exponent=  1.3571470233D+01 Coefficients= -4.0072398852D-02
     Exponent=  2.9257372874D+00 Coefficients= -2.1807045028D-01
     Exponent=  7.9927750754D-01 Coefficients= -5.1294466049D-01
 P 1 1.00
     Exponent=  2.1954348034D-01 Coefficients=  1.0000000000D+00
 D 1 1.00
     Exponent=  1.0000000000D+00 Coefficients=  1.0000000000D+00
 ****
 Centers:      15     16     17     18     19     23     24     25     26     27
 Centers:      28     58
 S 5 1.00
     Exponent=  2.2661767785D+03 Coefficients= -5.3431809926D-03
     Exponent=  3.4087010191D+02 Coefficients= -3.9890039230D-02
     Exponent=  7.7363135167D+01 Coefficients= -1.7853911985D-01
     Exponent=  2.1479644940D+01 Coefficients= -4.6427684959D-01
     Exponent=  6.6589433124D+00 Coefficients= -4.4309745172D-01
 S 1 1.00
     Exponent=  8.0975975668D-01 Coefficients=  1.0000000000D+00
 S 1 1.00
     Exponent=  2.5530772234D-01 Coefficients=  1.0000000000D+00
 P 3 1.00
     Exponent=  1.7721504317D+01 Coefficients=  4.3394573193D-02
     Exponent=  3.8635505440D+00 Coefficients=  2.3094120765D-01
     Exponent=  1.0480920883D+00 Coefficients=  5.1375311064D-01
 P 1 1.00
     Exponent=  2.7641544411D-01 Coefficients=  1.0000000000D+00
 D 1 1.00
     Exponent=  1.2000000000D+00 Coefficients=  1.0000000000D+00
 ****
 Centers:      32     33     34     35     36     37     38     39     40
 S 5 1.00
     Exponent=  2.8948325990D+03 Coefficients= -5.3408255515D-03
     Exponent=  4.3541939120D+02 Coefficients= -3.9904258866D-02
     Exponent=  9.8843328866D+01 Coefficients= -1.7912768038D-01
     Exponent=  2.7485198001D+01 Coefficients= -4.6758090825D-01
     Exponent=  8.5405498171D+00 Coefficients= -4.4653131020D-01
 S 1 1.00
     Exponent=  1.0654578038D+00 Coefficients=  1.0000000000D+00
 S 1 1.00
     Exponent=  3.3247346748D-01 Coefficients=  1.0000000000D+00
 P 3 1.00
     Exponent=  2.2696633924D+01 Coefficients= -4.5212874436D-02
     Exponent=  4.9872339257D+00 Coefficients= -2.3754317067D-01
     Exponent=  1.3491613954D+00 Coefficients= -5.1287353587D-01
 P 1 1.00
     Exponent=  3.4829881977D-01 Coefficients=  1.0000000000D+00
 D 1 1.00
     Exponent=  1.4000000000D+00 Coefficients=  1.0000000000D+00
 ****
 Centers:      20     21     22
 S 5 1.00
     Exponent=  9.1849303010D+03 Coefficients= -2.2294387756D-03
     Exponent=  1.3815105503D+03 Coefficients= -1.6683029937D-02
     Exponent=  3.1387147580D+02 Coefficients= -7.5262436116D-02
     Exponent=  8.8053870623D+01 Coefficients= -1.9376827038D-01
     Exponent=  2.7039914905D+01 Coefficients= -1.7718020803D-01
 S 3 1.00
     Exponent=  4.5648731303D+01 Coefficients= -1.0736062573D-01
     Exponent=  4.9664522326D+00 Coefficients=  6.5066293018D-01
     Exponent=  2.0116242047D+00 Coefficients=  5.9712155354D-01
 S 1 1.00
     Exponent=  3.5661077013D-01 Coefficients=  1.0000000000D+00
 S 1 1.00
     Exponent=  1.3507221477D-01 Coefficients=  1.0000000000D+00
 P 5 1.00
     Exponent=  2.6198233439D+02 Coefficients= -9.2729929822D-03
     Exponent=  6.1306894736D+01 Coefficients= -6.6547669241D-02
     Exponent=  1.9103729887D+01 Coefficients= -2.4828595903D-01
     Exponent=  6.6567720378D+00 Coefficients= -4.8703847402D-01
     Exponent=  2.3959635161D+00 Coefficients= -3.9337850312D-01
 P 1 1.00
     Exponent=  6.1776161679D-01 Coefficients=  1.0000000000D+00
 P 1 1.00
     Exponent=  1.6993376871D-01 Coefficients=  1.0000000000D+00
 D 1 1.00
     Exponent=  5.5000000000D-01 Coefficients=  1.0000000000D+00
 ****
 Centers:      59
 S 5 1.00
     Exponent=  9.1972903000D+04 Coefficients=  5.1000000000D-05
     Exponent=  1.3787371000D+04 Coefficients=  3.8600000000D-04
     Exponent=  3.1236135000D+03 Coefficients=  1.8440000000D-03
     Exponent=  8.7147540000D+02 Coefficients=  5.3560000000D-03
     Exponent=  2.5046300000D+02 Coefficients=  8.8590000000D-03
 S 1 1.00
     Exponent=  5.8282700000D+01 Coefficients=  1.0000000000D+00
 S 1 1.00
     Exponent=  4.1630500000D+01 Coefficients=  1.0000000000D+00
 S 1 1.00
     Exponent=  2.0216400000D+01 Coefficients=  1.0000000000D+00
 S 1 1.00
     Exponent=  4.9972000000D+00 Coefficients=  1.0000000000D+00
 S 1 1.00
     Exponent=  2.4822000000D+00 Coefficients=  1.0000000000D+00
 S 1 1.00
     Exponent=  9.1790000000D-01 Coefficients=  1.0000000000D+00
 S 1 1.00
     Exponent=  3.8530000000D-01 Coefficients=  1.0000000000D+00
 S 1 1.00
     Exponent=  6.1400000000D-02 Coefficients=  1.0000000000D+00
 S 1 1.00
     Exponent=  2.5000000000D-02 Coefficients=  1.0000000000D+00
 P 3 1.00
     Exponent=  1.2274108000D+01 Coefficients= -1.5252141000D-01
     Exponent=  1.0695631000D+01 Coefficients= -2.0243492000D-01
     Exponent=  2.0359782000D+00 Coefficients= -1.9621046000D-01
 P 6 1.00
     Exponent=  1.4975567000D+03 Coefficients= -1.0182934000D-03
     Exponent=  3.7504101000D+02 Coefficients= -6.0919401000D-03
     Exponent=  1.2869727000D+02 Coefficients= -1.7077693000D-02
     Exponent=  4.5270759000D+01 Coefficients= -3.5655508000D-02
     Exponent=  1.4906971000D+01 Coefficients=  2.3732226000D-01
     Exponent=  5.6450858000D+00 Coefficients= -3.0559689000D-01
 P 1 1.00
     Exponent=  3.6752106000D+00 Coefficients=  1.0000000000D+00
 P 1 1.00
     Exponent=  1.3296961000D+00 Coefficients=  1.0000000000D+00
 P 1 1.00
     Exponent=  5.5338966000D-01 Coefficients=  1.0000000000D+00
 P 1 1.00
     Exponent=  2.2382350000D-01 Coefficients=  1.0000000000D+00
 P 1 1.00
     Exponent=  6.8350467650D-02 Coefficients=  1.0000000000D+00
 P 1 1.00
     Exponent=  2.5355670803D-02 Coefficients=  1.0000000000D+00
 D 6 1.00
     Exponent=  4.6976060000D+02 Coefficients=  1.9840000000D-03
     Exponent=  1.4261280000D+02 Coefficients=  1.6013000000D-02
     Exponent=  5.5126700000D+01 Coefficients=  6.3153000000D-02
     Exponent=  2.3441500000D+01 Coefficients=  1.3780000000D-01
     Exponent=  9.4951000000D+00 Coefficients=  2.8549800000D-01
     Exponent=  4.5792000000D+00 Coefficients=  4.3830900000D-01
 D 1 1.00
     Exponent=  2.1646000000D+00 Coefficients=  1.0000000000D+00
 D 1 1.00
     Exponent=  9.2380000000D-01 Coefficients=  1.0000000000D+00
 D 1 1.00
     Exponent=  3.1070000000D-01 Coefficients=  1.0000000000D+00
 D 1 1.00
     Exponent=  9.1400000000D-02 Coefficients=  1.0000000000D+00
 F 5 1.00
     Exponent=  1.4202930000D+02 Coefficients=  5.9570000000D-03
     Exponent=  5.1086200000D+01 Coefficients=  5.3180000000D-02
     Exponent=  2.2874100000D+01 Coefficients=  1.7807600000D-01
     Exponent=  1.0502500000D+01 Coefficients=  3.0060000000D-01
     Exponent=  4.7872000000D+00 Coefficients=  3.5034200000D-01
 F 1 1.00
     Exponent=  2.1088000000D+00 Coefficients=  1.0000000000D+00
 F 1 1.00
     Exponent=  8.6090000000D-01 Coefficients=  1.0000000000D+00
 F 1 1.00
     Exponent=  3.0600000000D-01 Coefficients=  1.0000000000D+00
 G 1 1.00
     Exponent=  5.1330000000D-01 Coefficients=  1.0000000000D+00
 ****
 ======================================================================================================
                                       Pseudopotential Parameters
 ======================================================================================================
  Center     Atomic      Valence      Angular      Power
  Number     Number     Electrons     Momentum     of R      Exponent        Coefficient   SO-Coeffient
 ======================================================================================================
    1          6
                                   No pseudopotential on this center.
    2          6
                                   No pseudopotential on this center.
    3          6
                                   No pseudopotential on this center.
    4          6
                                   No pseudopotential on this center.
    5          6
                                   No pseudopotential on this center.
    6          6
                                   No pseudopotential on this center.
    7          6
                                   No pseudopotential on this center.
    8          6
                                   No pseudopotential on this center.
    9          6
                                   No pseudopotential on this center.
   10          1
                                   No pseudopotential on this center.
   11          1
                                   No pseudopotential on this center.
   12          1
                                   No pseudopotential on this center.
   13          1
                                   No pseudopotential on this center.
   14          1
                                   No pseudopotential on this center.
   15          8
                                   No pseudopotential on this center.
   16          8
                                   No pseudopotential on this center.
   17          8
                                   No pseudopotential on this center.
   18          8
                                   No pseudopotential on this center.
   19          8
                                   No pseudopotential on this center.
   20         16
                                   No pseudopotential on this center.
   21         16
                                   No pseudopotential on this center.
   22         16
                                   No pseudopotential on this center.
   23          8
                                   No pseudopotential on this center.
   24          8
                                   No pseudopotential on this center.
   25          8
                                   No pseudopotential on this center.
   26          8
                                   No pseudopotential on this center.
   27          8
                                   No pseudopotential on this center.
   28          8
                                   No pseudopotential on this center.
   29          6
                                   No pseudopotential on this center.
   30          6
                                   No pseudopotential on this center.
   31          6
                                   No pseudopotential on this center.
   32          9
                                   No pseudopotential on this center.
   33          9
                                   No pseudopotential on this center.
   34          9
                                   No pseudopotential on this center.
   35          9
                                   No pseudopotential on this center.
   36          9
                                   No pseudopotential on this center.
   37          9
                                   No pseudopotential on this center.
   38          9
                                   No pseudopotential on this center.
   39          9
                                   No pseudopotential on this center.
   40          9
                                   No pseudopotential on this center.
   41          6
                                   No pseudopotential on this center.
   42          1
                                   No pseudopotential on this center.
   43          6
                                   No pseudopotential on this center.
   44          6
                                   No pseudopotential on this center.
   45          6
                                   No pseudopotential on this center.
   46          6
                                   No pseudopotential on this center.
   47          6
                                   No pseudopotential on this center.
   48          6
                                   No pseudopotential on this center.
   49          1
                                   No pseudopotential on this center.
   50          1
                                   No pseudopotential on this center.
   51          1
                                   No pseudopotential on this center.
   52          7
                                   No pseudopotential on this center.
   53          7
                                   No pseudopotential on this center.
   54          7
                                   No pseudopotential on this center.
   55          7
                                   No pseudopotential on this center.
   56          6
                                   No pseudopotential on this center.
   57          1
                                   No pseudopotential on this center.
   58          8
                                   No pseudopotential on this center.
   59         70           42
                                      H and up 
                                                     2        1.0000000        0.00000000    0.00000000
                                      S - H
                                                     2       32.4244840      891.01377700    0.00000000
                                      P - H
                                                     2       18.6562320      264.03695300    0.00000000
                                      D - H
                                                     2       10.4902220       73.92391900    0.00000000
                                      F - H
                                                     2       20.7741830      -39.59217300    0.00000000
                                      G - H
                                                     2       28.4310280      -34.63863800    0.00000000
   60          6
                                   No pseudopotential on this center.
   61          1
                                   No pseudopotential on this center.
   62          1
                                   No pseudopotential on this center.
   63          1
                                   No pseudopotential on this center.
   64          6
                                   No pseudopotential on this center.
   65          1
                                   No pseudopotential on this center.
   66          1
                                   No pseudopotential on this center.
   67          1
                                   No pseudopotential on this center.
 ======================================================================================================
 Ernie: Thresh=  0.10000D-02 Tol=  0.10000D-05 Strict=F.
 There are   961 symmetry adapted cartesian basis functions of A   symmetry.
 There are   888 symmetry adapted basis functions of A   symmetry.
   888 basis functions,  1612 primitive gaussians,   961 cartesian basis functions
   222 alpha electrons      221 beta electrons
       nuclear repulsion energy     10645.4754180508 Hartrees.
 IExCor= 7252 DFT=T Ex+Corr=MN15 ExCW=0 ScaHFX=  0.440000
 ScaDFX=  1.000000  1.000000  1.000000  1.000000 ScalE2=  1.000000  1.000000
 IRadAn=      5 IRanWt=     -1 IRanGd=            0 ICorTp=0 IEmpDi=  4
 NAtoms=   67 NActive=   67 NUniq=   67 SFac= 1.00D+00 NAtFMM=   60 NAOKFM=T Big=T
 Integral buffers will be    131072 words long.
 Raffenetti 2 integral format.
 Two-electron integral symmetry is turned on.
 Force inversion solution in PCM.
 ------------------------------------------------------------------------------
 Polarizable Continuum Model (PCM)
 =================================
 Model                : PCM.
 Atomic radii         : SMD-Coulomb.
 Polarization charges : Total charges.
 Charge compensation  : None.
 Solution method      : Matrix inversion.
 Cavity type          : VdW (van der Waals Surface) (Alpha=1.000).
 Cavity algorithm     : GePol (No added spheres)
                        Default sphere list used, NSphG=   67.
                        Lebedev-Laikov grids with approx.  5.0 points / Ang**2.
                        Smoothing algorithm: York/Karplus (Gamma=1.0000).
                        Polarization charges: spherical gaussians, with
                                              point-specific exponents (IZeta= 3).
                        Self-potential: point-specific (ISelfS= 7).
                        Self-field    : sphere-specific E.n sum rule (ISelfD= 2).
 1st derivatives      : Analytical E(r).r(x)/FMM algorithm (CHGder, D1EAlg=3).
                        Cavity 1st derivative terms included.
 2nd derivatives      : Analytical E(r).r(xy)/FMM algorithm (CHGder, D2EAlg=3).
                        Cavity 2nd derivative terms included.
 Solvent              : DiChloroEthane, Eps=  10.125000 Eps(inf)=   2.087447
 ------------------------------------------------------------------------------
 GePol: Number of generator spheres                  =      67
 GePol: Total number of spheres                      =      67
 GePol: Number of exposed spheres                    =      67 (100.00%)
 GePol: Number of points                             =    4964
 GePol: Average weight of points                     =       0.13
 GePol: Minimum weight of points                     =   0.70D-11
 GePol: Maximum weight of points                     =    0.21501
 GePol: Number of points with low weight             =     290
 GePol: Fraction of low-weight points (<1% of avg)   =       5.84%
 GePol: Cavity surface area                          =    647.525 Ang**2
 GePol: Cavity volume                                =    759.352 Ang**3
 ------------------------------------------------------------------------------
 Atomic radii for non-electrostatic terms: SMD-CDS.
 ------------------------------------------------------------------------------
 PCM non-electrostatic energy =         0.0048317376 Hartrees.
 Nuclear repulsion after PCM non-electrostatic terms =    10645.4802497885 Hartrees.
 Leave Link  301 at Fri Mar  7 02:59:15 2025, MaxMem= 82678120448 cpu:               8.9 elap:               0.4
 (Enter /sysapps/ubuntu-applications/gaussian-new/avx/g16/l302.exe)
 NPDir=0 NMtPBC=     1 NCelOv=     1 NCel=       1 NClECP=     1 NCelD=      1
         NCelK=      1 NCelE2=     1 NClLst=     1 CellRange=     0.0.
 One-electron integrals computed using PRISM.
 One-electron integral symmetry used in STVInt
   1 Symmetry operations used in ECPInt.
 ECPInt:  NShTT=   73153 NPrTT=  279412 LenC2=   55548 LenP2D=  129305.
 LDataN:  DoStor=T MaxTD1= 9 Len=  602
 NBasis=   888 RedAO= T EigKep=  2.42D-04  NBF=   888
 NBsUse=   888 1.00D-06 EigRej= -1.00D+00 NBFU=   888
 Precomputing XC quadrature grid using
 IXCGrd= 4 IRadAn=           5 IRanWt=          -1 IRanGd=           0 AccXCQ= 0.00D+00.
 Defaulting to unpruned grid for atomic number  70.
 Generated NRdTot=       0 NPtTot=           0 NUsed=           0 NTot=          32
 NSgBfM=   924   924   924   924   924 MxSgAt=    67 MxSgA2=    67.
 Leave Link  302 at Fri Mar  7 02:59:19 2025, MaxMem= 82678120448 cpu:              89.3 elap:               3.7
 (Enter /sysapps/ubuntu-applications/gaussian-new/avx/g16/l303.exe)
 DipDrv:  MaxL=1.
 Leave Link  303 at Fri Mar  7 02:59:19 2025, MaxMem= 82678120448 cpu:               7.3 elap:               0.3
 (Enter /sysapps/ubuntu-applications/gaussian-new/avx/g16/l401.exe)
 ExpMin= 2.50D-02 ExpMax= 9.20D+04 ExpMxC= 1.38D+04 IAcc=3 IRadAn=         5 AccDes= 0.00D+00
 Harris functional with IExCor= 1009 and IRadAn=       5 diagonalized for initial guess.
 HarFok:  IExCor= 1009 AccDes= 0.00D+00 IRadAn=         5 IDoV= 1 UseB2=F ITyADJ=14
 ICtDFT=  3500011 ScaDFX=  1.000000  1.000000  1.000000  1.000000
 Defaulting to unpruned grid for atomic number  70.
 FoFCou: FMM=F IPFlag=           0 FMFlag=      100000 FMFlg1=        2001
         NFxFlg=           0 DoJE=T BraDBF=F KetDBF=T FulRan=T
         wScrn=  0.000000 ICntrl=       500 IOpCl=  0 I1Cent=   200000004 NGrid=           0
         NMat0=    1 NMatS0=      1 NMatT0=    0 NMatD0=    1 NMtDS0=    0 NMtDT0=    0
 Petite list used in FoFCou.
 Harris En= -5219.46693243093    
 JPrj=0 DoOrth=F DoCkMO=F.
 Initial guess <Sx>= 0.0000 <Sy>= 0.0000 <Sz>= 0.5000 <S**2>= 0.7500 S= 0.5000
 Leave Link  401 at Fri Mar  7 02:59:29 2025, MaxMem= 82678120448 cpu:             223.9 elap:               9.3
 (Enter /sysapps/ubuntu-applications/gaussian-new/avx/g16/l502.exe)
 Integral symmetry usage will be decided dynamically.
 UHF open shell SCF:
 Using DIIS extrapolation, IDIIS=  1040.
 NGot= 82678120448 LenX= 82676240789 LenY= 82675316307
 Requested convergence on RMS density matrix=1.00D-08 within 500 cycles.
 Requested convergence on MAX density matrix=1.00D-06.
 Requested convergence on             energy=1.00D-06.
 No special actions if energy rises.
 Fock matrices will be formed incrementally for  20 cycles.

 Cycle   1  Pass 1  IDiag  1:
 FoFJK:  IHMeth= 1 ICntrl=       0 DoSepK=F KAlg= 0 I1Cent=           0 FoldK=F
 IRaf= 840000000 NMat=       1 IRICut=       1 DoRegI=T DoRafI=F ISym2E= 0 IDoP0=0 IntGTp=1.
 FoFCou: FMM=T IPFlag=           0 FMFlag=      100000 FMFlg1=        2001
         NFxFlg=           0 DoJE=F BraDBF=F KetDBF=F FulRan=T
         wScrn=  0.000000 ICntrl=         0 IOpCl=  1 I1Cent=           0 NGrid=           0
         NMat0=    1 NMatS0=      1 NMatT0=    0 NMatD0=    1 NMtDS0=    0 NMtDT0=    0
 Symmetry not used in FoFCou.
 FMM levels:  10  Number of levels for PrismC:   9
 Defaulting to unpruned grid for atomic number  70.
 Defaulting to unpruned grid for atomic number  70.
 Defaulting to unpruned grid for atomic number  70.
 Defaulting to unpruned grid for atomic number  70.
 Defaulting to unpruned grid for atomic number  70.
 Defaulting to unpruned grid for atomic number  70.
 Defaulting to unpruned grid for atomic number  70.
 Defaulting to unpruned grid for atomic number  70.
 Defaulting to unpruned grid for atomic number  70.
 Defaulting to unpruned grid for atomic number  70.
 Defaulting to unpruned grid for atomic number  70.
 Defaulting to unpruned grid for atomic number  70.
 Defaulting to unpruned grid for atomic number  70.
 Defaulting to unpruned grid for atomic number  70.
 Defaulting to unpruned grid for atomic number  70.
 Defaulting to unpruned grid for atomic number  70.
 Defaulting to unpruned grid for atomic number  70.
 Defaulting to unpruned grid for atomic number  70.
 Defaulting to unpruned grid for atomic number  70.
 Defaulting to unpruned grid for atomic number  70.
 Defaulting to unpruned grid for atomic number  70.
 Defaulting to unpruned grid for atomic number  70.
 Defaulting to unpruned grid for atomic number  70.
 Defaulting to unpruned grid for atomic number  70.
 Inv3:  Mode=1 IEnd=    73923888.
 Iteration    1 A*A^-1 deviation from unit magnitude is 6.44D-15 for   4963.
 Iteration    1 A*A^-1 deviation from orthogonality  is 3.69D-15 for   4963   4307.
 Iteration    1 A^-1*A deviation from unit magnitude is 6.00D-15 for   4963.
 Iteration    1 A^-1*A deviation from orthogonality  is 2.38D-15 for   2888   2827.
 E= -5213.64066938046    
 DIIS: error= 1.97D-01 at cycle   1 NSaved=   1.
 NSaved= 1 IEnMin= 1 EnMin= -5213.64066938046     IErMin= 1 ErrMin= 1.97D-01
 ErrMax= 1.97D-01  0.00D+00 EMaxC= 1.00D-01 BMatC= 1.38D+02 BMatP= 1.38D+02
 IDIUse=3 WtCom= 0.00D+00 WtEn= 1.00D+00
 Coeff-Com:  0.100D+01
 Coeff-En:   0.100D+01
 Coeff:      0.100D+01
 Gap=     0.174 Goal=   None    Shift=    0.000
 Gap=     0.186 Goal=   None    Shift=    0.000
 GapD=    0.174 DampG=1.000 DampE=0.125 DampFc=0.1250 IDamp=-1.
 Damping current iteration by 1.25D-01
 RMSDP=1.65D-02 MaxDP=2.97D+00              OVMax= 9.87D-01

 Cycle   2  Pass 1  IDiag  1:
 RMSU=  2.06D-03    CP:  9.93D-01
 E= -5215.10894924057     Delta-E=       -1.468279860106 Rises=F Damp=T
 DIIS: error= 8.21D-02 at cycle   2 NSaved=   2.
 NSaved= 2 IEnMin= 2 EnMin= -5215.10894924057     IErMin= 2 ErrMin= 8.21D-02
 ErrMax= 8.21D-02  0.00D+00 EMaxC= 1.00D-01 BMatC= 2.71D+01 BMatP= 1.38D+02
 IDIUse=3 WtCom= 1.79D-01 WtEn= 8.21D-01
 Coeff-Com: -0.614D+00 0.161D+01
 Coeff-En:   0.237D+00 0.763D+00
 Coeff:      0.850D-01 0.915D+00
 Gap=     0.043 Goal=   None    Shift=    0.000
 Gap=    -0.092 Goal=   None    Shift=    0.000
 RMSDP=3.43D-03 MaxDP=5.01D-01 DE=-1.47D+00 OVMax= 9.54D-01

 Cycle   3  Pass 1  IDiag  1:
 RMSU=  3.16D-03    CP:  9.71D-01  3.74D-01
 E= -5215.37272648644     Delta-E=       -0.263777245875 Rises=F Damp=F
 DIIS: error= 1.05D-01 at cycle   3 NSaved=   3.
 NSaved= 3 IEnMin= 3 EnMin= -5215.37272648644     IErMin= 2 ErrMin= 8.21D-02
 ErrMax= 1.05D-01  0.00D+00 EMaxC= 1.00D-01 BMatC= 5.08D+01 BMatP= 2.71D+01
 IDIUse=2 WtCom= 0.00D+00 WtEn= 1.00D+00
 EnCoef did     4 forward-backward iterations
 Coeff-En:   0.264D+00 0.205D+00 0.531D+00
 Coeff:      0.264D+00 0.205D+00 0.531D+00
 Gap=     0.622 Goal=   None    Shift=    0.000
 Gap=     0.622 Goal=   None    Shift=    0.000
 RMSDP=6.47D-03 MaxDP=6.46D-01 DE=-2.64D-01 OVMax= 9.99D-01

 Cycle   4  Pass 1  IDiag  1:
 RMSU=  5.28D-03    CP:  9.58D-01  1.78D+00  2.47D-01
 E= -5102.77676651413     Delta-E=      112.595959972310 Rises=F Damp=F
 DIIS: error= 5.11D-01 at cycle   4 NSaved=   4.
 NSaved= 4 IEnMin= 3 EnMin= -5215.37272648644     IErMin= 2 ErrMin= 8.21D-02
 ErrMax= 5.11D-01  0.00D+00 EMaxC= 1.00D-01 BMatC= 6.99D+02 BMatP= 2.71D+01
 IDIUse=2 WtCom= 0.00D+00 WtEn= 1.00D+00
 EnCoef did   100 forward-backward iterations
 Coeff-En:   0.435D+00 0.165D-01 0.504D+00 0.445D-01
 Coeff:      0.435D+00 0.165D-01 0.504D+00 0.445D-01
 Gap=     0.014 Goal=   None    Shift=    0.000
 Gap=     0.011 Goal=   None    Shift=    0.000
 RMSDP=6.06D-03 MaxDP=6.46D-01 DE= 1.13D+02 OVMax= 1.00D+00

 Cycle   5  Pass 1  IDiag  1:
 RMSU=  1.16D-03    CP:  9.78D-01  2.71D-01  4.26D-01  4.51D-02
 E= -5218.51206778925     Delta-E=     -115.735301275114 Rises=F Damp=F
 DIIS: error= 8.56D-03 at cycle   5 NSaved=   5.
 NSaved= 5 IEnMin= 5 EnMin= -5218.51206778925     IErMin= 5 ErrMin= 8.56D-03
 ErrMax= 8.56D-03  0.00D+00 EMaxC= 1.00D-01 BMatC= 4.93D-01 BMatP= 2.71D+01
 IDIUse=3 WtCom= 9.14D-01 WtEn= 8.56D-02
 Coeff-Com:  0.112D-01 0.213D+00 0.179D+00 0.224D-03 0.597D+00
 Coeff-En:   0.000D+00 0.000D+00 0.000D+00 0.000D+00 0.100D+01
 Coeff:      0.102D-01 0.195D+00 0.163D+00 0.205D-03 0.631D+00
 Gap=     0.247 Goal=   None    Shift=    0.000
 Gap=     0.209 Goal=   None    Shift=    0.000
 RMSDP=6.40D-04 MaxDP=5.47D-02 DE=-1.16D+02 OVMax= 5.81D-02

 Cycle   6  Pass 1  IDiag  1:
 RMSU=  4.54D-04    CP:  9.79D-01  2.43D-01  4.88D-01  2.60D-02  6.62D-01
 E= -5218.51781291753     Delta-E=       -0.005745128281 Rises=F Damp=F
 DIIS: error= 1.24D-02 at cycle   6 NSaved=   6.
 NSaved= 6 IEnMin= 6 EnMin= -5218.51781291753     IErMin= 5 ErrMin= 8.56D-03
 ErrMax= 1.24D-02  0.00D+00 EMaxC= 1.00D-01 BMatC= 8.39D-01 BMatP= 4.93D-01
 IDIUse=2 WtCom= 0.00D+00 WtEn= 1.00D+00
 Coeff-En:   0.000D+00 0.000D+00 0.000D+00 0.000D+00 0.482D+00 0.518D+00
 Coeff:      0.000D+00 0.000D+00 0.000D+00 0.000D+00 0.482D+00 0.518D+00
 Gap=     0.171 Goal=   None    Shift=    0.000
 Gap=     0.176 Goal=   None    Shift=    0.000
 RMSDP=8.01D-04 MaxDP=1.33D-01 DE=-5.75D-03 OVMax= 7.03D-01

 Cycle   7  Pass 1  IDiag  1:
 RMSU=  6.87D-04    CP:  9.75D-01  3.07D-01  4.75D-01  5.38D-02  9.47D-01
                    CP:  7.06D-01
 E= -5218.20085842004     Delta-E=        0.316954497490 Rises=F Damp=F
 DIIS: error= 4.43D-02 at cycle   7 NSaved=   7.
 NSaved= 7 IEnMin= 6 EnMin= -5218.51781291753     IErMin= 5 ErrMin= 8.56D-03
 ErrMax= 4.43D-02  0.00D+00 EMaxC= 1.00D-01 BMatC= 8.37D+00 BMatP= 4.93D-01
 IDIUse=2 WtCom= 0.00D+00 WtEn= 1.00D+00
 EnCoef did     6 forward-backward iterations
 Coeff-En:   0.000D+00 0.000D+00 0.000D+00 0.000D+00 0.379D+00 0.518D+00
 Coeff-En:   0.103D+00
 Coeff:      0.000D+00 0.000D+00 0.000D+00 0.000D+00 0.379D+00 0.518D+00
 Coeff:      0.103D+00
 Gap=     0.112 Goal=   None    Shift=    0.000
 Gap=     0.061 Goal=   None    Shift=    0.000
 RMSDP=6.03D-04 MaxDP=1.16D-01 DE= 3.17D-01 OVMax= 6.28D-01

 Cycle   8  Pass 1  IDiag  1:
 RMSU=  1.68D-04    CP:  9.77D-01  2.80D-01  4.65D-01  3.85D-02  8.96D-01
                    CP:  6.55D-01  1.76D-01
 E= -5218.58667295820     Delta-E=       -0.385814538158 Rises=F Damp=F
 DIIS: error= 6.38D-03 at cycle   8 NSaved=   8.
 NSaved= 8 IEnMin= 8 EnMin= -5218.58667295820     IErMin= 8 ErrMin= 6.38D-03
 ErrMax= 6.38D-03  0.00D+00 EMaxC= 1.00D-01 BMatC= 1.77D-01 BMatP= 4.93D-01
 IDIUse=3 WtCom= 9.36D-01 WtEn= 6.38D-02
 Coeff-Com: -0.191D-01 0.240D-01-0.169D-01-0.966D-03 0.140D+00 0.304D+00
 Coeff-Com:  0.567D-02 0.563D+00
 Coeff-En:   0.000D+00 0.000D+00 0.000D+00 0.000D+00 0.000D+00 0.104D+00
 Coeff-En:   0.000D+00 0.896D+00
 Coeff:     -0.179D-01 0.225D-01-0.158D-01-0.904D-03 0.131D+00 0.291D+00
 Coeff:      0.530D-02 0.584D+00
 Gap=     0.168 Goal=   None    Shift=    0.000
 Gap=     0.133 Goal=   None    Shift=    0.000
 RMSDP=1.42D-04 MaxDP=1.43D-02 DE=-3.86D-01 OVMax= 5.99D-02

 Cycle   9  Pass 1  IDiag  1:
 RMSU=  6.88D-05    CP:  9.77D-01  2.62D-01  4.60D-01  3.56D-02  8.45D-01
                    CP:  7.14D-01  7.95D-02  5.81D-01
 E= -5218.59621218240     Delta-E=       -0.009539224204 Rises=F Damp=F
 DIIS: error= 1.41D-03 at cycle   9 NSaved=   9.
 NSaved= 9 IEnMin= 9 EnMin= -5218.59621218240     IErMin= 9 ErrMin= 1.41D-03
 ErrMax= 1.41D-03  0.00D+00 EMaxC= 1.00D-01 BMatC= 1.28D-02 BMatP= 1.77D-01
 IDIUse=3 WtCom= 9.86D-01 WtEn= 1.41D-02
 Coeff-Com: -0.109D-01 0.137D-01-0.921D-02-0.415D-03 0.402D-01 0.114D+00
 Coeff-Com: -0.357D-03 0.340D+00 0.513D+00
 Coeff-En:   0.000D+00 0.000D+00 0.000D+00 0.000D+00 0.000D+00 0.000D+00
 Coeff-En:   0.000D+00 0.119D+00 0.881D+00
 Coeff:     -0.108D-01 0.135D-01-0.908D-02-0.409D-03 0.396D-01 0.113D+00
 Coeff:     -0.352D-03 0.337D+00 0.518D+00
 Gap=     0.157 Goal=   None    Shift=    0.000
 Gap=     0.130 Goal=   None    Shift=    0.000
 RMSDP=3.99D-05 MaxDP=5.11D-03 DE=-9.54D-03 OVMax= 6.60D-03

 Cycle  10  Pass 1  IDiag  1:
 RMSU=  2.69D-05    CP:  9.77D-01  2.66D-01  4.61D-01  3.62D-02  8.56D-01
                    CP:  7.24D-01  8.82D-02  6.88D-01  7.81D-01
 E= -5218.59748437109     Delta-E=       -0.001272188685 Rises=F Damp=F
 DIIS: error= 6.49D-04 at cycle  10 NSaved=  10.
 NSaved=10 IEnMin=10 EnMin= -5218.59748437109     IErMin=10 ErrMin= 6.49D-04
 ErrMax= 6.49D-04  0.00D+00 EMaxC= 1.00D-01 BMatC= 2.15D-03 BMatP= 1.28D-02
 IDIUse=3 WtCom= 9.94D-01 WtEn= 6.49D-03
 Coeff-Com: -0.728D-02 0.923D-02-0.337D-02-0.183D-03-0.336D-02 0.929D-02
 Coeff-Com:  0.241D-02 0.807D-01 0.283D+00 0.629D+00
 Coeff-En:   0.000D+00 0.000D+00 0.000D+00 0.000D+00 0.000D+00 0.000D+00
 Coeff-En:   0.000D+00 0.000D+00 0.000D+00 0.100D+01
 Coeff:     -0.723D-02 0.917D-02-0.335D-02-0.182D-03-0.334D-02 0.923D-02
 Coeff:      0.239D-02 0.802D-01 0.281D+00 0.632D+00
 Gap=     0.155 Goal=   None    Shift=    0.000
 Gap=     0.130 Goal=   None    Shift=    0.000
 RMSDP=1.71D-05 MaxDP=1.85D-03 DE=-1.27D-03 OVMax= 5.03D-03

 Cycle  11  Pass 1  IDiag  1:
 RMSU=  1.38D-05    CP:  9.77D-01  2.65D-01  4.60D-01  3.63D-02  8.58D-01
                    CP:  7.36D-01  8.54D-02  7.03D-01  8.73D-01  9.87D-01
 E= -5218.59763643853     Delta-E=       -0.000152067445 Rises=F Damp=F
 DIIS: error= 6.01D-04 at cycle  11 NSaved=  11.
 NSaved=11 IEnMin=11 EnMin= -5218.59763643853     IErMin=11 ErrMin= 6.01D-04
 ErrMax= 6.01D-04  0.00D+00 EMaxC= 1.00D-01 BMatC= 1.67D-03 BMatP= 2.15D-03
 IDIUse=3 WtCom= 9.94D-01 WtEn= 6.01D-03
 Coeff-Com: -0.454D-02 0.603D-02 0.156D-03-0.112D-03-0.150D-01-0.294D-01
 Coeff-Com:  0.568D-02-0.530D-01-0.109D-02 0.302D+00 0.790D+00
 Coeff-En:   0.000D+00 0.000D+00 0.000D+00 0.000D+00 0.000D+00 0.000D+00
 Coeff-En:   0.000D+00 0.000D+00 0.000D+00 0.000D+00 0.100D+01
 Coeff:     -0.451D-02 0.599D-02 0.156D-03-0.111D-03-0.149D-01-0.293D-01
 Coeff:      0.565D-02-0.527D-01-0.109D-02 0.300D+00 0.791D+00
 Gap=     0.153 Goal=   None    Shift=    0.000
 Gap=     0.129 Goal=   None    Shift=    0.000
 RMSDP=1.19D-05 MaxDP=1.85D-03 DE=-1.52D-04 OVMax= 4.08D-03

 Cycle  12  Pass 1  IDiag  1:
 RMSU=  5.93D-06    CP:  9.77D-01  2.66D-01  4.59D-01  3.63D-02  8.59D-01
                    CP:  7.43D-01  8.39D-02  7.18D-01  9.60D-01  1.25D+00
                    CP:  1.05D+00
 E= -5218.59771912855     Delta-E=       -0.000082690016 Rises=F Damp=F
 DIIS: error= 4.37D-04 at cycle  12 NSaved=  12.
 NSaved=12 IEnMin=12 EnMin= -5218.59771912855     IErMin=12 ErrMin= 4.37D-04
 ErrMax= 4.37D-04  0.00D+00 EMaxC= 1.00D-01 BMatC= 8.62D-04 BMatP= 1.67D-03
 IDIUse=3 WtCom= 9.96D-01 WtEn= 4.37D-03
 Coeff-Com: -0.245D-02 0.335D-02 0.798D-03-0.678D-04-0.107D-01-0.239D-01
 Coeff-Com:  0.411D-02-0.475D-01-0.763D-01-0.499D-01 0.308D+00 0.894D+00
 Coeff-En:   0.000D+00 0.000D+00 0.000D+00 0.000D+00 0.000D+00 0.000D+00
 Coeff-En:   0.000D+00 0.000D+00 0.000D+00 0.000D+00 0.000D+00 0.100D+01
 Coeff:     -0.244D-02 0.333D-02 0.794D-03-0.675D-04-0.106D-01-0.238D-01
 Coeff:      0.409D-02-0.473D-01-0.759D-01-0.497D-01 0.307D+00 0.895D+00
 Gap=     0.151 Goal=   None    Shift=    0.000
 Gap=     0.127 Goal=   None    Shift=    0.000
 RMSDP=8.55D-06 MaxDP=1.41D-03 DE=-8.27D-05 OVMax= 2.40D-03

 Cycle  13  Pass 1  IDiag  1:
 RMSU=  4.16D-06    CP:  9.77D-01  2.66D-01  4.59D-01  3.65D-02  8.61D-01
                    CP:  7.46D-01  8.34D-02  7.28D-01  1.01D+00  1.40D+00
                    CP:  1.31D+00  1.15D+00
 E= -5218.59776923573     Delta-E=       -0.000050107185 Rises=F Damp=F
 DIIS: error= 2.27D-04 at cycle  13 NSaved=  13.
 NSaved=13 IEnMin=13 EnMin= -5218.59776923573     IErMin=13 ErrMin= 2.27D-04
 ErrMax= 2.27D-04  0.00D+00 EMaxC= 1.00D-01 BMatC= 2.38D-04 BMatP= 8.62D-04
 IDIUse=3 WtCom= 9.98D-01 WtEn= 2.27D-03
 Coeff-Com: -0.958D-03 0.134D-02 0.124D-03-0.339D-04-0.186D-02-0.463D-02
 Coeff-Com:  0.135D-02-0.297D-02-0.361D-01-0.140D+00-0.159D+00 0.494D+00
 Coeff-Com:  0.849D+00
 Coeff-En:   0.000D+00 0.000D+00 0.000D+00 0.000D+00 0.000D+00 0.000D+00
 Coeff-En:   0.000D+00 0.000D+00 0.000D+00 0.000D+00 0.000D+00 0.000D+00
 Coeff-En:   0.100D+01
 Coeff:     -0.956D-03 0.134D-02 0.123D-03-0.338D-04-0.186D-02-0.462D-02
 Coeff:      0.135D-02-0.296D-02-0.360D-01-0.140D+00-0.158D+00 0.493D+00
 Coeff:      0.849D+00
 Gap=     0.149 Goal=   None    Shift=    0.000
 Gap=     0.126 Goal=   None    Shift=    0.000
 RMSDP=5.17D-06 MaxDP=6.87D-04 DE=-5.01D-05 OVMax= 1.17D-03

 Cycle  14  Pass 1  IDiag  1:
 RMSU=  2.12D-06    CP:  9.77D-01  2.66D-01  4.59D-01  3.65D-02  8.62D-01
                    CP:  7.49D-01  8.36D-02  7.37D-01  1.03D+00  1.48D+00
                    CP:  1.45D+00  1.54D+00  1.03D+00
 E= -5218.59778375232     Delta-E=       -0.000014516587 Rises=F Damp=F
 DIIS: error= 7.08D-05 at cycle  14 NSaved=  14.
 NSaved=14 IEnMin=14 EnMin= -5218.59778375232     IErMin=14 ErrMin= 7.08D-05
 ErrMax= 7.08D-05  0.00D+00 EMaxC= 1.00D-01 BMatC= 2.55D-05 BMatP= 2.38D-04
 IDIUse=1 WtCom= 1.00D+00 WtEn= 0.00D+00
 Coeff-Com: -0.391D-03 0.575D-03-0.238D-03-0.152D-04 0.755D-03 0.178D-02
 Coeff-Com:  0.306D-03 0.108D-01 0.235D-03-0.574D-01-0.140D+00 0.668D-01
 Coeff-Com:  0.472D+00 0.645D+00
 Coeff:     -0.391D-03 0.575D-03-0.238D-03-0.152D-04 0.755D-03 0.178D-02
 Coeff:      0.306D-03 0.108D-01 0.235D-03-0.574D-01-0.140D+00 0.668D-01
 Coeff:      0.472D+00 0.645D+00
 Gap=     0.149 Goal=   None    Shift=    0.000
 Gap=     0.126 Goal=   None    Shift=    0.000
 RMSDP=1.58D-06 MaxDP=2.85D-04 DE=-1.45D-05 OVMax= 2.48D-04

 Cycle  15  Pass 1  IDiag  1:
 RMSU=  8.91D-07    CP:  9.77D-01  2.66D-01  4.59D-01  3.65D-02  8.63D-01
                    CP:  7.49D-01  8.40D-02  7.39D-01  1.02D+00  1.48D+00
                    CP:  1.45D+00  1.58D+00  1.22D+00  8.79D-01
 E= -5218.59778580467     Delta-E=       -0.000002052349 Rises=F Damp=F
 DIIS: error= 2.74D-05 at cycle  15 NSaved=  15.
 NSaved=15 IEnMin=15 EnMin= -5218.59778580467     IErMin=15 ErrMin= 2.74D-05
 ErrMax= 2.74D-05  0.00D+00 EMaxC= 1.00D-01 BMatC= 3.39D-06 BMatP= 2.55D-05
 IDIUse=1 WtCom= 1.00D+00 WtEn= 0.00D+00
 Coeff-Com: -0.888D-04 0.140D-03-0.132D-03-0.173D-05 0.170D-03 0.544D-03
 Coeff-Com:  0.621D-04 0.387D-02 0.672D-02 0.103D-01-0.364D-02-0.742D-01
 Coeff-Com: -0.173D-01 0.197D+00 0.876D+00
 Coeff:     -0.888D-04 0.140D-03-0.132D-03-0.173D-05 0.170D-03 0.544D-03
 Coeff:      0.621D-04 0.387D-02 0.672D-02 0.103D-01-0.364D-02-0.742D-01
 Coeff:     -0.173D-01 0.197D+00 0.876D+00
 Gap=     0.149 Goal=   None    Shift=    0.000
 Gap=     0.126 Goal=   None    Shift=    0.000
 RMSDP=9.55D-07 MaxDP=1.13D-04 DE=-2.05D-06 OVMax= 2.58D-04

 Cycle  16  Pass 1  IDiag  1:
 RMSU=  4.41D-07    CP:  9.77D-01  2.67D-01  4.59D-01  3.66D-02  8.63D-01
                    CP:  7.49D-01  8.44D-02  7.39D-01  1.02D+00  1.47D+00
                    CP:  1.44D+00  1.58D+00  1.28D+00  1.05D+00  1.12D+00
 E= -5218.59778618788     Delta-E=       -0.000000383208 Rises=F Damp=F
 DIIS: error= 9.10D-06 at cycle  16 NSaved=  16.
 NSaved=16 IEnMin=16 EnMin= -5218.59778618788     IErMin=16 ErrMin= 9.10D-06
 ErrMax= 9.10D-06  0.00D+00 EMaxC= 1.00D-01 BMatC= 4.17D-07 BMatP= 3.39D-06
 IDIUse=1 WtCom= 1.00D+00 WtEn= 0.00D+00
 Coeff-Com: -0.531D-04 0.685D-04-0.385D-04-0.940D-06 0.145D-04 0.447D-04
 Coeff-Com:  0.760D-04-0.161D-03 0.322D-02 0.148D-01 0.246D-01-0.423D-01
 Coeff-Com: -0.939D-01-0.316D-01 0.405D+00 0.720D+00
 Coeff:     -0.531D-04 0.685D-04-0.385D-04-0.940D-06 0.145D-04 0.447D-04
 Coeff:      0.760D-04-0.161D-03 0.322D-02 0.148D-01 0.246D-01-0.423D-01
 Coeff:     -0.939D-01-0.316D-01 0.405D+00 0.720D+00
 Gap=     0.149 Goal=   None    Shift=    0.000
 Gap=     0.126 Goal=   None    Shift=    0.000
 RMSDP=4.31D-07 MaxDP=8.71D-05 DE=-3.83D-07 OVMax= 1.33D-04

 Cycle  17  Pass 1  IDiag  1:
 RMSU=  2.03D-07    CP:  9.77D-01  2.67D-01  4.59D-01  3.66D-02  8.63D-01
                    CP:  7.48D-01  8.46D-02  7.39D-01  1.02D+00  1.46D+00
                    CP:  1.43D+00  1.57D+00  1.28D+00  1.11D+00  1.33D+00
                    CP:  1.00D+00
 E= -5218.59778623861     Delta-E=       -0.000000050732 Rises=F Damp=F
 DIIS: error= 5.37D-06 at cycle  17 NSaved=  17.
 NSaved=17 IEnMin=17 EnMin= -5218.59778623861     IErMin=17 ErrMin= 5.37D-06
 ErrMax= 5.37D-06  0.00D+00 EMaxC= 1.00D-01 BMatC= 1.42D-07 BMatP= 4.17D-07
 IDIUse=1 WtCom= 1.00D+00 WtEn= 0.00D+00
 Coeff-Com: -0.229D-04 0.220D-04 0.281D-05-0.606D-06-0.317D-04-0.929D-04
 Coeff-Com:  0.396D-04-0.696D-03 0.425D-03 0.483D-02 0.104D-01-0.722D-02
 Coeff-Com: -0.403D-01-0.481D-01 0.156D-01 0.295D+00 0.770D+00
 Coeff:     -0.229D-04 0.220D-04 0.281D-05-0.606D-06-0.317D-04-0.929D-04
 Coeff:      0.396D-04-0.696D-03 0.425D-03 0.483D-02 0.104D-01-0.722D-02
 Coeff:     -0.403D-01-0.481D-01 0.156D-01 0.295D+00 0.770D+00
 Gap=     0.149 Goal=   None    Shift=    0.000
 Gap=     0.126 Goal=   None    Shift=    0.000
 RMSDP=1.80D-07 MaxDP=2.24D-05 DE=-5.07D-08 OVMax= 5.63D-05

 Cycle  18  Pass 1  IDiag  1:
 RMSU=  9.18D-08    CP:  9.77D-01  2.67D-01  4.59D-01  3.66D-02  8.63D-01
                    CP:  7.48D-01  8.46D-02  7.39D-01  1.02D+00  1.46D+00
                    CP:  1.43D+00  1.57D+00  1.29D+00  1.13D+00  1.39D+00
                    CP:  1.20D+00  1.10D+00
 E= -5218.59778625306     Delta-E=       -0.000000014450 Rises=F Damp=F
 DIIS: error= 1.66D-06 at cycle  18 NSaved=  18.
 NSaved=18 IEnMin=18 EnMin= -5218.59778625306     IErMin=18 ErrMin= 1.66D-06
 ErrMax= 1.66D-06  0.00D+00 EMaxC= 1.00D-01 BMatC= 1.53D-08 BMatP= 1.42D-07
 IDIUse=1 WtCom= 1.00D+00 WtEn= 0.00D+00
 Coeff-Com: -0.428D-05 0.196D-05 0.739D-05-0.141D-06-0.391D-04-0.825D-04
 Coeff-Com:  0.100D-04-0.290D-03-0.161D-03 0.355D-03 0.105D-02 0.258D-02
 Coeff-Com: -0.575D-02-0.170D-01-0.618D-01 0.957D-02 0.372D+00 0.700D+00
 Coeff:     -0.428D-05 0.196D-05 0.739D-05-0.141D-06-0.391D-04-0.825D-04
 Coeff:      0.100D-04-0.290D-03-0.161D-03 0.355D-03 0.105D-02 0.258D-02
 Coeff:     -0.575D-02-0.170D-01-0.618D-01 0.957D-02 0.372D+00 0.700D+00
 Gap=     0.149 Goal=   None    Shift=    0.000
 Gap=     0.126 Goal=   None    Shift=    0.000
 RMSDP=9.38D-08 MaxDP=1.05D-05 DE=-1.45D-08 OVMax= 3.19D-05

 Cycle  19  Pass 1  IDiag  1:
 RMSU=  4.05D-08    CP:  9.77D-01  2.67D-01  4.59D-01  3.66D-02  8.63D-01
                    CP:  7.48D-01  8.47D-02  7.39D-01  1.02D+00  1.46D+00
                    CP:  1.43D+00  1.57D+00  1.29D+00  1.14D+00  1.42D+00
                    CP:  1.27D+00  1.31D+00  9.91D-01
 E= -5218.59778625582     Delta-E=       -0.000000002763 Rises=F Damp=F
 DIIS: error= 2.17D-07 at cycle  19 NSaved=  19.
 NSaved=19 IEnMin=19 EnMin= -5218.59778625582     IErMin=19 ErrMin= 2.17D-07
 ErrMax= 2.17D-07  0.00D+00 EMaxC= 1.00D-01 BMatC= 9.16D-10 BMatP= 1.53D-08
 IDIUse=1 WtCom= 1.00D+00 WtEn= 0.00D+00
 Coeff-Com:  0.144D-05-0.155D-05 0.290D-05-0.371D-08-0.111D-04-0.150D-04
 Coeff-Com: -0.804D-06 0.461D-05-0.191D-03-0.102D-02-0.214D-02 0.312D-02
 Coeff-Com:  0.652D-02 0.404D-02-0.342D-01-0.641D-01 0.177D-01 0.354D+00
 Coeff-Com:  0.717D+00
 Coeff:      0.144D-05-0.155D-05 0.290D-05-0.371D-08-0.111D-04-0.150D-04
 Coeff:     -0.804D-06 0.461D-05-0.191D-03-0.102D-02-0.214D-02 0.312D-02
 Coeff:      0.652D-02 0.404D-02-0.342D-01-0.641D-01 0.177D-01 0.354D+00
 Coeff:      0.717D+00
 Gap=     0.149 Goal=   None    Shift=    0.000
 Gap=     0.126 Goal=   None    Shift=    0.000
 RMSDP=3.99D-08 MaxDP=4.73D-06 DE=-2.76D-09 OVMax= 2.03D-05

 Cycle  20  Pass 1  IDiag  1:
 RMSU=  1.81D-08    CP:  9.77D-01  2.67D-01  4.59D-01  3.66D-02  8.63D-01
                    CP:  7.48D-01  8.47D-02  7.39D-01  1.02D+00  1.46D+00
                    CP:  1.43D+00  1.57D+00  1.29D+00  1.15D+00  1.43D+00
                    CP:  1.30D+00  1.40D+00  1.21D+00  1.09D+00
 E= -5218.59778625599     Delta-E=       -0.000000000173 Rises=F Damp=F
 DIIS: error= 2.19D-07 at cycle  20 NSaved=  20.
 NSaved=20 IEnMin=20 EnMin= -5218.59778625599     IErMin=19 ErrMin= 2.17D-07
 ErrMax= 2.19D-07  0.00D+00 EMaxC= 1.00D-01 BMatC= 2.90D-10 BMatP= 9.16D-10
 IDIUse=1 WtCom= 1.00D+00 WtEn= 0.00D+00
 Coeff-Com:  0.266D-05-0.270D-05 0.845D-07 0.637D-07 0.110D-05 0.677D-05
 Coeff-Com: -0.206D-05 0.454D-04-0.606D-04-0.478D-03-0.102D-02 0.861D-03
 Coeff-Com:  0.354D-02 0.487D-02-0.271D-02-0.271D-01-0.537D-01 0.204D-01
 Coeff-Com:  0.271D+00 0.785D+00
 Coeff:      0.266D-05-0.270D-05 0.845D-07 0.637D-07 0.110D-05 0.677D-05
 Coeff:     -0.206D-05 0.454D-04-0.606D-04-0.478D-03-0.102D-02 0.861D-03
 Coeff:      0.354D-02 0.487D-02-0.271D-02-0.271D-01-0.537D-01 0.204D-01
 Coeff:      0.271D+00 0.785D+00
 Gap=     0.149 Goal=   None    Shift=    0.000
 Gap=     0.126 Goal=   None    Shift=    0.000
 RMSDP=1.99D-08 MaxDP=2.98D-06 DE=-1.73D-10 OVMax= 1.25D-05

 Cycle  21  Pass 1  IDiag  1:
 Restarting incremental Fock formation.
 E= -5218.59778625646     Delta-E=       -0.000000000464 Rises=F Damp=F
 DIIS: error= 2.30D-07 at cycle  21 NSaved=  20.
 NSaved=20 IEnMin=20 EnMin= -5218.59778625646     IErMin=18 ErrMin= 2.17D-07
 ErrMax= 2.30D-07  0.00D+00 EMaxC= 1.00D-01 BMatC= 2.59D-10 BMatP= 2.90D-10
 IDIUse=1 WtCom= 1.00D+00 WtEn= 0.00D+00
 Coeff-Com:  0.118D-05-0.125D-05-0.611D-06 0.474D-05 0.999D-05-0.147D-05
 Coeff-Com:  0.252D-04 0.535D-05-0.489D-04-0.988D-04-0.398D-04 0.666D-03
 Coeff-Com:  0.161D-02 0.482D-02-0.297D-03-0.281D-01-0.611D-01-0.286D-01
 Coeff-Com:  0.370D+00 0.741D+00
 Coeff:      0.118D-05-0.125D-05-0.611D-06 0.474D-05 0.999D-05-0.147D-05
 Coeff:      0.252D-04 0.535D-05-0.489D-04-0.988D-04-0.398D-04 0.666D-03
 Coeff:      0.161D-02 0.482D-02-0.297D-03-0.281D-01-0.611D-01-0.286D-01
 Coeff:      0.370D+00 0.741D+00
 Gap=     0.149 Goal=   None    Shift=    0.000
 Gap=     0.126 Goal=   None    Shift=    0.000
 RMSDP=1.24D-08 MaxDP=1.46D-06 DE=-4.64D-10 OVMax= 8.31D-06

 Cycle  22  Pass 1  IDiag  1:
 RMSU=  1.24D-08    CP:  1.00D+00
 E= -5218.59778625647     Delta-E=       -0.000000000011 Rises=F Damp=F
 DIIS: error= 1.52D-07 at cycle  22 NSaved=  20.
 NSaved=20 IEnMin=20 EnMin= -5218.59778625647     IErMin=20 ErrMin= 1.52D-07
 ErrMax= 1.52D-07  0.00D+00 EMaxC= 1.00D-01 BMatC= 1.13D-10 BMatP= 2.59D-10
 IDIUse=1 WtCom= 1.00D+00 WtEn= 0.00D+00
 Coeff-Com: -0.176D-06-0.240D-06 0.337D-05 0.398D-05-0.200D-06-0.101D-04
 Coeff-Com:  0.596D-05 0.109D-03 0.294D-03-0.183D-03-0.861D-03-0.131D-02
 Coeff-Com:  0.273D-02 0.121D-01 0.115D-01-0.304D-01-0.125D+00-0.201D+00
 Coeff-Com:  0.291D+00 0.104D+01
 Coeff:     -0.176D-06-0.240D-06 0.337D-05 0.398D-05-0.200D-06-0.101D-04
 Coeff:      0.596D-05 0.109D-03 0.294D-03-0.183D-03-0.861D-03-0.131D-02
 Coeff:      0.273D-02 0.121D-01 0.115D-01-0.304D-01-0.125D+00-0.201D+00
 Coeff:      0.291D+00 0.104D+01
 Gap=     0.149 Goal=   None    Shift=    0.000
 Gap=     0.126 Goal=   None    Shift=    0.000
 RMSDP=1.19D-08 MaxDP=1.69D-06 DE=-1.09D-11 OVMax= 8.93D-06

 Cycle  23  Pass 1  IDiag  1:
 RMSU=  7.01D-09    CP:  1.00D+00  1.78D+00
 E= -5218.59778625636     Delta-E=        0.000000000113 Rises=F Damp=F
 DIIS: error= 2.34D-08 at cycle  23 NSaved=  20.
 NSaved=20 IEnMin=19 EnMin= -5218.59778625647     IErMin=20 ErrMin= 2.34D-08
 ErrMax= 2.34D-08  0.00D+00 EMaxC= 1.00D-01 BMatC= 3.63D-12 BMatP= 1.13D-10
 IDIUse=1 WtCom= 1.00D+00 WtEn= 0.00D+00
 Coeff-Com:  0.236D-06 0.213D-06-0.104D-05 0.103D-06-0.905D-05-0.534D-05
 Coeff-Com:  0.188D-04 0.805D-04-0.644D-05-0.293D-03-0.782D-03-0.519D-03
 Coeff-Com:  0.335D-02 0.806D-02 0.643D-02-0.276D-01-0.164D+00-0.939D-01
 Coeff-Com:  0.355D+00 0.914D+00
 Coeff:      0.236D-06 0.213D-06-0.104D-05 0.103D-06-0.905D-05-0.534D-05
 Coeff:      0.188D-04 0.805D-04-0.644D-05-0.293D-03-0.782D-03-0.519D-03
 Coeff:      0.335D-02 0.806D-02 0.643D-02-0.276D-01-0.164D+00-0.939D-01
 Coeff:      0.355D+00 0.914D+00
 Gap=     0.149 Goal=   None    Shift=    0.000
 Gap=     0.126 Goal=   None    Shift=    0.000
 RMSDP=5.96D-09 MaxDP=8.44D-07 DE= 1.13D-10 OVMax= 4.69D-06

 Error on total polarization charges =  0.03300
 SCF Done:  E(UMN15) =  -5218.59778626     A.U. after   23 cycles
            NFock= 23  Conv=0.60D-08     -V/T= 2.0934
 <Sx>= 0.0000 <Sy>= 0.0000 <Sz>= 0.5000 <S**2>= 0.7604 S= 0.5052
 <L.S>=  0.00000000000    
 KE= 4.772853487422D+03 PE=-3.371446068174D+04 EE= 1.307752915827D+04
 SMD-CDS (non-electrostatic) energy       (kcal/mol) =       3.03
 (included in total energy above)
 Annihilation of the first spin contaminant:
 S**2 before annihilation     0.7604,   after     0.7501
 Leave Link  502 at Fri Mar  7 03:32:04 2025, MaxMem= 82678120448 cpu:           46776.2 elap:            1954.7
 (Enter /sysapps/ubuntu-applications/gaussian-new/avx/g16/l801.exe)
 DoSCS=F DFT=T ScalE2(SS,OS)=  1.000000  1.000000
 Range of M.O.s used for correlation:     1   888
 NBasis=   888 NAE=   222 NBE=   221 NFC=     0 NFV=     0
 NROrb=    888 NOA=   222 NOB=   221 NVA=   666 NVB=   667

 **** Warning!!: The largest alpha MO coefficient is  0.12747586D+02


 **** Warning!!: The largest beta MO coefficient is  0.12747583D+02

 Leave Link  801 at Fri Mar  7 03:32:04 2025, MaxMem= 82678120448 cpu:               2.5 elap:               0.1
 (Enter /sysapps/ubuntu-applications/gaussian-new/avx/g16/l1101.exe)
 Using compressed storage, NAtomX=    67.
 Will process     68 centers per pass.
   1 Symmetry operations used in ECPInt.
 ECPInt:  NShTT=   73153 NPrTT=  279412 LenC2=   55548 LenP2D=  129305.
 LDataN:  DoStor=T MaxTD1=10 Len=  848
 Leave Link 1101 at Fri Mar  7 03:32:23 2025, MaxMem= 82678120448 cpu:             448.7 elap:              18.7
 (Enter /sysapps/ubuntu-applications/gaussian-new/avx/g16/l1102.exe)
 Symmetrizing basis deriv contribution to polar:
 IMax=3 JMax=2 DiffMx= 0.00D+00
 Leave Link 1102 at Fri Mar  7 03:32:24 2025, MaxMem= 82678120448 cpu:               8.6 elap:               0.4
 (Enter /sysapps/ubuntu-applications/gaussian-new/avx/g16/l1110.exe)
 Forming Gx(P) for the SCF density, NAtomX=    67.
 Integral derivatives from FoFJK, PRISM(SPDF).
 Do as many integral derivatives as possible in FoFJK.
 G2DrvN: MDV=   82678115220.
 G2DrvN: will do    68 centers at a time, making    1 passes.
 Calling FoFCou, ICntrl=  3107 FMM=T I1Cent=   0 AccDes= 0.00D+00.
 FoFJK:  IHMeth= 1 ICntrl=    3107 DoSepK=F KAlg= 0 I1Cent=           0 FoldK=F
 IRaf=         0 NMat=       1 IRICut=       1 DoRegI=T DoRafI=F ISym2E= 0 IDoP0=0 IntGTp=1.
 FoFCou: FMM=T IPFlag=           0 FMFlag=      100000 FMFlg1=        2001
         NFxFlg=           0 DoJE=F BraDBF=F KetDBF=F FulRan=T
         wScrn=  0.000000 ICntrl=      3107 IOpCl=  1 I1Cent=           0 NGrid=           0
         NMat0=    1 NMatS0=      1 NMatT0=    0 NMatD0=    1 NMtDS0=    0 NMtDT0=    0
 Symmetry not used in FoFCou.
 FMM levels:  10  Number of levels for PrismC:   9
 Defaulting to unpruned grid for atomic number  70.
 Defaulting to unpruned grid for atomic number  70.
 Defaulting to unpruned grid for atomic number  70.
 Defaulting to unpruned grid for atomic number  70.
 Defaulting to unpruned grid for atomic number  70.
 Defaulting to unpruned grid for atomic number  70.
 Defaulting to unpruned grid for atomic number  70.
 Defaulting to unpruned grid for atomic number  70.
 Defaulting to unpruned grid for atomic number  70.
 Defaulting to unpruned grid for atomic number  70.
 Defaulting to unpruned grid for atomic number  70.
 Defaulting to unpruned grid for atomic number  70.
 Defaulting to unpruned grid for atomic number  70.
 Defaulting to unpruned grid for atomic number  70.
 Defaulting to unpruned grid for atomic number  70.
 Defaulting to unpruned grid for atomic number  70.
 Defaulting to unpruned grid for atomic number  70.
 Defaulting to unpruned grid for atomic number  70.
 Defaulting to unpruned grid for atomic number  70.
 Defaulting to unpruned grid for atomic number  70.
 Defaulting to unpruned grid for atomic number  70.
 Defaulting to unpruned grid for atomic number  70.
 Defaulting to unpruned grid for atomic number  70.
 Defaulting to unpruned grid for atomic number  70.
 NEqPCM:  Using equilibrium solvation (IEInf=0, Eps=  10.1250, EpsInf=   2.0874)
 G2PCM: DoFxE=T DoFxN=T DoGrad=T DoDP/DQ/DG/TGxP=FFFF NFrqRd=   0 IEInf=0 SqF1=F DoCFld=F IF1Alg=4.
 GePol: Maximum number of non-zero 1st derivatives   =     265
 End of G2Drv F.D. properties file   721 does not exist.
 End of G2Drv F.D. properties file   722 does not exist.
 End of G2Drv F.D. properties file   788 does not exist.
 Leave Link 1110 at Fri Mar  7 04:48:53 2025, MaxMem= 82678120448 cpu:          110131.9 elap:            4589.4
 (Enter /sysapps/ubuntu-applications/gaussian-new/avx/g16/l1002.exe)
 Minotr:  UHF open shell wavefunction.
          IDoAtm=11111111111111111111111111111111111111111111111111
          IDoAtm=11111111111111111
 NEqPCM:  Using equilibrium solvation (IEInf=0, Eps=  10.1250, EpsInf=   2.0874)
          Direct CPHF calculation.
          Differentiating once with respect to electric field.
                with respect to dipole field.
          Differentiating once with respect to nuclear coordinates.
          Requested convergence is 1.0D-08 RMS, and 1.0D-07 maximum.
          Secondary convergence is 1.0D-12 RMS, and 1.0D-12 maximum.
          NewPWx=T KeepS1=F KeepF1=F KeepIn=T MapXYZ=F SortEE=F KeepMc=T.
 Defaulting to unpruned grid for atomic number  70.
        20800 words used for storage of precomputed grid.
 Two-electron integrals replicated using symmetry.
          MDV=   82678120448 using IRadAn=       1.
          Solving linear equations simultaneously, MaxMat=      72.
 FoF2E skips out because all densities are zero.
 CalDSu exits because no D1Ps are significant.
 FoFJK:  IHMeth= 1 ICntrl=       0 DoSepK=F KAlg= 0 I1Cent=           0 FoldK=F
 IRaf= 790000000 NMat=      72 IRICut=       1 DoRegI=T DoRafI=F ISym2E= 2 IDoP0=3 IntGTp=3.
 Defaulting to unpruned grid for atomic number  70.
 Defaulting to unpruned grid for atomic number  70.
 Defaulting to unpruned grid for atomic number  70.
 Defaulting to unpruned grid for atomic number  70.
 Defaulting to unpruned grid for atomic number  70.
 Defaulting to unpruned grid for atomic number  70.
 Defaulting to unpruned grid for atomic number  70.
 Defaulting to unpruned grid for atomic number  70.
 Defaulting to unpruned grid for atomic number  70.
 Defaulting to unpruned grid for atomic number  70.
 Defaulting to unpruned grid for atomic number  70.
 Defaulting to unpruned grid for atomic number  70.
 Defaulting to unpruned grid for atomic number  70.
 Defaulting to unpruned grid for atomic number  70.
 Defaulting to unpruned grid for atomic number  70.
 Defaulting to unpruned grid for atomic number  70.
 Defaulting to unpruned grid for atomic number  70.
 Defaulting to unpruned grid for atomic number  70.
 Defaulting to unpruned grid for atomic number  70.
 Defaulting to unpruned grid for atomic number  70.
 Defaulting to unpruned grid for atomic number  70.
 Defaulting to unpruned grid for atomic number  70.
 Defaulting to unpruned grid for atomic number  70.
 Defaulting to unpruned grid for atomic number  70.
          There are   204 degrees of freedom in the 1st order CPHF.  IDoFFX=6 NUNeed=     3.
    204 vectors produced by pass  0 Test12= 2.95D-13 1.00D-09 XBig12= 4.84D+02 4.28D+00.
 AX will form    72 AO Fock derivatives at one time.
    201 vectors produced by pass  1 Test12= 2.95D-13 1.00D-09 XBig12= 1.13D+02 8.60D-01.
    201 vectors produced by pass  2 Test12= 2.95D-13 1.00D-09 XBig12= 5.33D+00 3.57D-01.
    201 vectors produced by pass  3 Test12= 2.95D-13 1.00D-09 XBig12= 1.08D-01 2.56D-02.
    201 vectors produced by pass  4 Test12= 2.95D-13 1.00D-09 XBig12= 1.75D-03 3.50D-03.
    201 vectors produced by pass  5 Test12= 2.95D-13 1.00D-09 XBig12= 2.31D-05 3.90D-04.
    197 vectors produced by pass  6 Test12= 2.95D-13 1.00D-09 XBig12= 2.75D-07 3.66D-05.
    123 vectors produced by pass  7 Test12= 2.95D-13 1.00D-09 XBig12= 2.33D-09 4.21D-06.
     44 vectors produced by pass  8 Test12= 2.95D-13 1.00D-09 XBig12= 2.20D-11 3.36D-07.
      3 vectors produced by pass  9 Test12= 2.95D-13 1.00D-09 XBig12= 3.20D-13 4.02D-08.
      3 vectors produced by pass 10 Test12= 2.95D-13 1.00D-09 XBig12= 7.79D-15 6.83D-09.
      3 vectors produced by pass 11 Test12= 2.95D-13 1.00D-09 XBig12= 1.73D-15 1.87D-09.
 InvSVY:  IOpt=1 It=  1 EMax= 7.11D-15
 Solved reduced A of dimension  1582 with   204 vectors.
 FullF1:  Do perturbations      1 to       3.
 Isotropic polarizability for W=    0.000000      442.12 Bohr**3.
 End of Minotr F.D. properties file   721 does not exist.
 End of Minotr F.D. properties file   722 does not exist.
 End of Minotr F.D. properties file   788 does not exist.
 Leave Link 1002 at Fri Mar  7 08:59:42 2025, MaxMem= 82678120448 cpu:          361082.1 elap:           15047.9
 (Enter /sysapps/ubuntu-applications/gaussian-new/avx/g16/l601.exe)
 Copying SCF densities to generalized density rwf, IOpCl= 1 IROHF=0.

 **********************************************************************

            Population analysis using the SCF density.

 **********************************************************************

 Orbital symmetries:
 Alpha Orbitals:
       Occupied  (A) (A) (A) (A) (A) (A) (A) (A) (A) (A) (A) (A)
                 (A) (A) (A) (A) (A) (A) (A) (A) (A) (A) (A) (A)
                 (A) (A) (A) (A) (A) (A) (A) (A) (A) (A) (A) (A)
                 (A) (A) (A) (A) (A) (A) (A) (A) (A) (A) (A) (A)
                 (A) (A) (A) (A) (A) (A) (A) (A) (A) (A) (A) (A)
                 (A) (A) (A) (A) (A) (A) (A) (A) (A) (A) (A) (A)
                 (A) (A) (A) (A) (A) (A) (A) (A) (A) (A) (A) (A)
                 (A) (A) (A) (A) (A) (A) (A) (A) (A) (A) (A) (A)
                 (A) (A) (A) (A) (A) (A) (A) (A) (A) (A) (A) (A)
                 (A) (A) (A) (A) (A) (A) (A) (A) (A) (A) (A) (A)
                 (A) (A) (A) (A) (A) (A) (A) (A) (A) (A) (A) (A)
                 (A) (A) (A) (A) (A) (A) (A) (A) (A) (A) (A) (A)
                 (A) (A) (A) (A) (A) (A) (A) (A) (A) (A) (A) (A)
                 (A) (A) (A) (A) (A) (A) (A) (A) (A) (A) (A) (A)
                 (A) (A) (A) (A) (A) (A) (A) (A) (A) (A) (A) (A)
                 (A) (A) (A) (A) (A) (A) (A) (A) (A) (A) (A) (A)
[...]
 63,0.00006915,-0.00045326,0.00056128,0.00041712,0.00022489,0.00104881,
 0.00002215,0.00006995,-0.00002023,-0.00000164,-0.00002199,0.00001938,-
 0.00000188,-0.00000454,-0.00000025,-0.00002742,0.00000389,-0.00001957,
 -0.00004831,0.00005549,-0.00000232,0.00000490,0.00001112,0.00001491,-0
 .00000172,0.00000050,-0.00000173,-0.00000474,-0.00000952,0.00001994,-0
 .00000052,0.00000560,0.00000168,0.00000071,0.00000012,-0.00002229,0.00
 000060,-0.00000504,-0.00000100,0.00004835,0.00000896,0.00002500,-0.000
 06507,0.00009881,-0.00006944,-0.00001121,0.00005857,-0.00003780,0.0000
 0068,0.00000428,-0.00000600,0.00095362,0.00042533,0.00011807,0.0003291
 2,0.00002350,-0.00019666,0.00005363,0.00017402,0.00017803,0.00001809,-
 0.00004592,0.00004761,-0.00000398,-0.00002261,-0.00000699,0.00000684,-
 0.00001527,-0.00000391,0.02551464,-0.07282517,-0.08448646,-0.03081381,
 0.07687344,-0.00011715,-0.00011587,0.00003295,-0.00001021,0.00005345,-
 0.00007409,0.00002935,0.00003318,0.00001367,0.00000212,0.00001569,0.00
 001755,-0.00001621,-0.00001758,0.00000136,-0.00011131,0.00005790,-0.00
 001839,0.00070684,0.00269022,-0.00052617,0.00519500,-0.00331748,-0.015
 39215,-0.00049381,0.00002401,0.00016105,0.00000581,-0.00000881,0.00001
 345,0.00001207,0.00000593,0.00000215,0.00000480,0.00000407,0.00000126,
 0.00000806,0.00000301,-0.00000236,-0.00010806,0.00000017,-0.00000541,0
 .00026147,0.00004753,0.00013419,-0.00299070,-0.00086172,0.00157806,-0.
 00001690,-0.00002566,0.00003592,-0.00000712,0.00002366,-0.00001331,-0.
 00002411,0.00003164,0.00008511,-0.00006399,0.00000170,-0.00003493,0.00
 001009,0.00001664,-0.00005618,0.00003731,-0.00006740,0.00004239,0.0000
 0176,0.00001446,0.00003037,0.00002326,-0.00000135,0.00001937,-0.000005
 77,-0.00001078,0.00001865,-0.00000022,-0.00000500,0.00001708,-0.000044
 21,0.00002613,-0.00001922,-0.00000337,0.00001572,-0.00001911,0.0000185
 2,-0.00000434,-0.00000120,0.00001483,0.00000910,0.00000082,-0.00000802
 ,-0.00002142,0.00001181,-0.00000633,-0.00000068,-0.00000211,-0.0000049
 1,0.00000086,0.00000206,-0.00000913,0.00000966,-0.00000069,-0.00000860
 ,-0.00000670,0.00000517,-0.00000505,-0.00000164,-0.00000137,-0.0000030
 5,-0.00000308,-0.00000056,0.00000802,0.00001029,-0.00000335,0.00000107
 ,0.00000378,-0.00000047,-0.00000281,0.00000762,0.00000287,0.00069598,-
 0.00070021,-0.00040927,-0.00058265,0.00126463,-0.00096054,0.00014792,0
 .00012651,0.00027501,-0.00006178,0.00005009,0.00001076,0.00001878,-0.0
 0017364,-0.00000457,0.00001538,0.00000075,0.00001161,-0.00000944,-0.00
 000301,0.00001985,-0.00000434,0.00001160,-0.00001650,-0.00000061,-0.00
 000061,-0.00000251,0.00000656,0.00000789,-0.00000067,0.00000149,0.0000
 0119,0.00000161,0.00001438,-0.00000508,-0.00000834,0.00001402,0.000038
 83,0.00004498,-0.00000849,0.00002384,-0.00004901,0.00000522,-0.0000035
 5,-0.00001275,-0.00001193,-0.00002231,-0.00000180,0.00000015,0.0000029
 0,-0.00000669,-0.00043321,-0.00026096,0.00004402,0.00023126,0.00000629
 ,-0.00016696,0.00002788,-0.00009710,-0.00010417,-0.00001040,0.00001730
 ,-0.00002337,0.00000678,0.00000398,0.00001307,-0.00000045,0.00000390,-
 0.00000712,0.07969657,-0.08900791,-0.26637301,-0.08453565,0.08965368,0
 .28463981,-0.00171364,0.00065439,-0.00011358,0.00013108,-0.00007732,-0
 .00016383,-0.00003215,-0.00007685,0.00005979,-0.00002049,-0.00000452,-
 0.00009397,0.00011945,0.00005793,0.00003366,-0.00012391,-0.00001303,0.
 00018002,-0.00102378,-0.00007716,-0.00002940,-0.00752912,0.00078569,-0
 .00434051,0.00003304,0.00004629,-0.00008497,-0.00000243,0.00000593,-0.
 00001845,0.00000962,0.00001427,0.00000502,0.00000913,0.00000389,-0.000
 00252,0.00000701,0.00000802,-0.00000621,0.00001185,0.00001135,0.000024
 90,-0.00001348,0.00001226,0.00010138,0.00000845,-0.00381922,0.00118085
 ,-0.00006648,-0.00008943,0.00007665,-0.00009341,0.00000878,-0.00000951
 ,0.00009258,0.00011070,0.00002986,-0.00011459,-0.00006176,0.00008072,0
 .00004791,0.00006435,-0.00011138,0.00013744,-0.00001136,0.00008610,0.0
 0006743,0.00007155,-0.00001021,0.00003924,0.00002385,0.00000126,-0.000
 02728,-0.00001189,0.00002796,-0.00000010,-0.00002462,0.00002791,-0.000
 07065,0.00000784,-0.00002317,-0.00003090,0.00000479,-0.00002455,0.0000
 5623,-0.00001208,-0.00001212,0.00002883,0.00002453,0.00001735,-0.00007
 867,-0.00003965,0.00002701,-0.00002377,-0.00000658,-0.00000724,-0.0000
 1900,-0.00000099,0.00001389,-0.00002022,0.00001847,0.00000050,-0.00001
 943,-0.00001623,0.00000891,-0.00001226,-0.00000359,-0.00000627,-0.0000
 0395,-0.00001031,-0.00000601,0.00004059,0.00002975,-0.00001521,0.00001
 719,0.00000798,0.00000830,0.00001275,0.00000517,-0.00001333,0.00003013
 ,0.00078717,-0.00043673,0.00018987,-0.00000111,0.00023716,0.00000885,-
 0.00008408,0.00006634,-0.00000446,0.00001030,0.00002775,0.00000738,-0.
 00001477,-0.00002474,0.00000489,0.00000568,0.00000346,-0.00001480,0.00
 001596,0.00000574,-0.00000590,0.00001326,-0.00001028,-0.00000052,0.000
 00035,-0.00000184,0.00000156,0.00000115,0.00000733,0.00000161,0.000002
 58,0.00000044,0.00000119,-0.00000185,-0.00000779,0.00000127,0.00000698
 ,0.00001723,0.00001838,0.00000672,-0.00000173,0.00000836,-0.00001940,0
 .00000092,-0.00002658,0.00000430,0.00000950,0.00000109,-0.00000007,-0.
 00000577,0.00028353,0.00065198,-0.00064327,0.00030613,-0.00005810,-0.0
 0024238,-0.00001378,-0.00002077,0.00001742,0.00000589,-0.00000789,0.00
 000714,0.00001648,-0.00000727,-0.00000586,0.00001221,-0.00000202,0.000
 01002,-0.20857972,-0.10606084,-0.10192863,0.00848187,0.00614942,0.0050
 7911,0.22106712,0.00007731,0.00017531,0.00003792,0.00009604,0.00007220
 ,0.00015494,-0.00001507,-0.00004047,0.00003704,-0.00004332,-0.00006423
 ,0.00001065,-0.00000963,-0.00002991,-0.00001944,0.00000346,0.00002522,
 -0.00017119,-0.00145516,-0.00047025,0.00089844,-0.01298480,-0.00584717
 ,-0.01737543,-0.00032575,-0.00003452,-0.00020497,0.00001161,0.00001864
 ,0.00001680,-0.00002096,-0.00001356,-0.00000684,-0.00001175,-0.0000039
 3,0.00000055,-0.00001588,-0.00001085,0.00001065,0.00002302,-0.00000587
 ,-0.00001766,0.00022592,0.00004912,0.00021589,-0.00484785,-0.00399704,
 0.00470065,-0.00005077,-0.00013829,0.00009582,-0.00002037,0.00005858,-
 0.00005715,-0.00000701,0.00005330,0.00011451,-0.00003498,-0.00001310,-
 0.00009660,0.00000941,0.00010881,-0.00013576,0.00002870,-0.00016321,0.
 00013554,0.00000271,0.00003589,0.00004546,0.00002120,-0.00000828,0.000
 03067,-0.00001416,-0.00004627,0.00003336,0.00002510,-0.00003625,0.0000
 3546,-0.00009822,0.00006168,-0.00007064,0.00001799,0.00003358,-0.00004
 757,0.00003174,0.00000431,0.00000396,0.00002784,0.00003299,0.00002568,
 0.00004224,-0.00001292,-0.00000117,-0.00001151,-0.00000470,-0.00000645
 ,-0.00000659,0.00000037,0.00000018,-0.00001629,0.00001372,-0.00000191,
 -0.00002119,-0.00001953,0.00000828,-0.00001040,-0.00000572,-0.00000629
 ,-0.00000234,-0.00001735,-0.00001059,-0.00001424,-0.00000083,0.0000040
 4,-0.00001234,0.00000536,-0.00000606,-0.00001640,0.00001223,0.00001728
 ,0.00108555,-0.00153055,-0.00004743,-0.00017581,-0.00037896,-0.0001539
 1,-0.00008190,-0.00004619,-0.00013540,0.00001572,-0.00001227,-0.000043
 56,0.00001744,0.00007705,0.00003118,0.00001249,0.00000214,0.00000187,0
 .00000113,0.00006339,-0.00004407,-0.00000380,0.00000606,0.00001282,0.0
 0000197,0.00000150,0.00000175,0.00000286,0.00001379,0.00001099,-0.0000
 0291,0.00000169,-0.00000059,-0.00000829,0.00000985,0.00002834,-0.00001
 550,-0.00000563,-0.00003826,-0.00002709,0.00000102,0.00003796,-0.00000
 879,0.00002831,-0.00002509,0.00001442,-0.00003596,0.00003940,-0.000003
 01,-0.00000635,0.00000874,0.00068631,0.00081378,0.00005032,0.00051074,
 -0.00006477,-0.00033451,0.00005782,-0.00002957,-0.00003839,-0.00000456
 ,0.00000196,-0.00001760,0.00002196,-0.00000842,0.00003256,0.00000862,-
 0.00000459,-0.00001533,-0.10346343,-0.11336781,-0.06046819,-0.00589790
 ,-0.00406819,-0.00193893,0.11289596,0.11738049,0.00018740,-0.00009716,
 0.00020643,0.00017684,0.00002483,0.00004153,-0.00006561,-0.00011650,0.
 00005514,0.00000473,-0.00003164,-0.00008074,0.00007313,0.00012053,-0.0
 0002141,-0.00007546,0.00004211,-0.00006163,0.00005490,0.00000769,-0.00
 012086,0.01476009,0.00557269,0.01118082,0.00027608,0.00006565,0.000126
 33,-0.00002327,0.00002084,-0.00004798,-0.00000794,-0.00000108,-0.00000
 068,0.00000192,-0.00000453,-0.00000452,0.00000521,-0.00000872,-0.00000
 004,0.00003293,-0.00004605,-0.00003532,-0.00013765,-0.00004395,-0.0001
 2072,0.00319437,0.00485724,-0.00263475,0.00003277,0.00005851,-0.000047
 65,-0.00000318,-0.00002413,0.00001475,-0.00012629,-0.00004057,0.000073
 39,0.00010524,0.00000183,-0.00008042,-0.00000748,-0.00002235,0.0000631
 2,0.00002229,0.00006458,-0.00006641,-0.00006104,-0.00003853,0.00001043
 ,-0.00003353,0.00000223,0.00001630,0.00000501,0.00000271,-0.00001501,-
 0.00000724,0.00000943,-0.00001604,0.00002848,-0.00002869,0.00003103,-0
 .00002538,-0.00001103,0.00002675,0.00000377,-0.00000567,0.00000174,-0.
 00000948,-0.00000798,-0.00001554,0.00003580,-0.00002135,-0.00000734,-0
 .00000244,0.00000065,-0.00000066,-0.00000295,0.,0.00000231,-0.00000023
 ,-0.00000044,-0.00000030,0.00000801,0.00000624,-0.00000195,0.00000591,
 0.00000067,0.00000479,0.00000062,0.00000358,0.00000394,-0.00001210,0.0
 0000322,0.00000229,-0.00001242,0.00000559,-0.00000719,-0.00001183,0.00
 000943,0.00001331,-0.00025759,0.00048325,0.00025826,0.00002977,-0.0002
 2868,-0.00002355,0.00001147,-0.00012716,-0.00006696,-0.00000232,-0.000
 01941,0.00001347,-0.00002632,0.00004676,-0.00000088,-0.00000253,-0.000
 00230,0.00000049,-0.00000405,-0.00000617,-0.00001396,0.00000690,-0.000
 00017,0.00000760,0.00000080,0.00000042,0.00000062,0.00000133,0.0000019
 2,-0.00000655,-0.00000012,-0.00000056,-0.00000041,0.00000363,0.0000085
 2,-0.00000651,0.00000776,-0.00000583,-0.00001006,0.00001960,0.00001471
 ,0.00000319,0.00001279,0.00000659,-0.00000645,-0.00000463,0.00000903,0
 .00001117,-0.00000036,-0.00000024,0.00000123,-0.00061595,0.00099159,-0
 .00127978,-0.00021774,0.00007040,0.00015205,-0.00005821,0.00002333,0.0
 0003795,0.00001213,-0.00000174,0.00000948,-0.00000016,0.00000557,-0.00
 001401,0.00000247,-0.00000382,0.00000526,-0.10487736,-0.06440105,-0.10
 800535,-0.02011204,-0.01056998,-0.00829459,0.10873523,0.06527577,0.110
 99597,-0.00002871,0.00004914,-0.00001496,0.00005215,0.00004271,0.00007
 665,-0.00002342,-0.00001839,0.00002150,-0.00000705,-0.00002181,-0.0000
 1979,0.00001807,0.00001696,-0.00001273,-0.00001903,0.00003089,-0.00006
 594,-0.00204755,-0.00024627,0.00133228,0.00995868,-0.00796459,0.001670
 82,0.00041923,0.00023586,0.00018480,0.00000087,0.00000191,0.00000020,-
 0.00000584,-0.00000299,-0.00000240,-0.00000394,-0.00000224,-0.00000067
 ,-0.00000378,-0.00000226,0.00000405,0.00001936,-0.00000892,-0.00000926
 ,-0.00001497,-0.00000239,0.00004639,-0.00111663,-0.00082432,0.00024110
 ,-0.00004819,-0.00007493,0.00004291,0.00054537,0.00040269,0.00009927,-
 0.00011918,0.00010916,-0.00003222,-0.00010689,-0.00014946,-0.00003725,
 0.00004551,0.00006819,-0.00007199,0.00000933,-0.00036355,-0.00030372,-
 0.00006228,0.00003219,0.00006182,0.00000411,0.00001597,-0.00000642,-0.
 00002528,-0.00002137,0.00002107,-0.00000126,-0.00002472,0.00001717,-0.
 00004281,0.00012626,-0.00002443,0.00005060,0.00006569,0.00004510,-0.00
 011764,0.00001049,0.00002536,0.00002704,0.00001994,0.00002060,0.000067
 18,-0.00001311,0.00006439,0.00006177,0.00002190,0.00002322,0.00002539,
 0.00000240,-0.00002219,0.00001583,-0.00000330,-0.00000421,-0.00001584,
 -0.00001292,0.00000499,-0.00001317,-0.00000212,-0.00000920,-0.00000393
 ,-0.00001084,-0.00000771,-0.00001647,0.00001033,-0.00000992,-0.0000315
 6,0.00002074,-0.00003809,-0.00001139,0.00001129,-0.00000338,0.00021326
 ,-0.00008527,0.00024606,-0.00016265,-0.00011103,-0.00013099,-0.0000260
 9,-0.00009228,-0.00005831,0.00000381,-0.00002393,0.00000223,-0.0000088
 4,0.00003223,-0.00000432,0.00000906,0.00000683,-0.00000202,0.00000140,
 0.00002070,-0.00000810,-0.00000356,0.00001274,-0.00000509,0.00000096,0
 .00000190,-0.00000002,0.00000627,0.00000292,0.00001118,0.00000065,0.00
 000205,0.00000052,0.00000102,0.00000765,-0.00000097,0.00000403,0.00000
 275,-0.00000375,-0.00000945,0.00001161,-0.00001735,0.00000581,0.000000
 28,-0.00001088,-0.00000603,0.00000473,0.00002373,-0.00000396,-0.000000
 81,0.00000048,0.00031231,0.00028117,-0.00034735,0.00042865,-0.00005424
 ,-0.00006164,-0.00009720,-0.00012702,0.00010713,0.00000255,0.00000005,
 -0.00000447,0.00000730,-0.00000326,-0.00000028,0.00002900,-0.00000306,
 0.00004356,-0.21210577,0.13898446,-0.03749296,-0.00556229,0.00422120,-
 0.00258187,-0.01163217,0.01378265,-0.00105445,0.22115826,-0.00001694,-
 0.00000597,0.00001055,0.00003736,0.00004902,0.00004150,-0.00001103,-0.
 00000484,0.00001944,-0.00000596,-0.00001302,-0.00001064,0.00001448,0.0
 0000810,-0.00001021,-0.00000742,0.00002617,-0.00003547,-0.00305142,-0.
 00132656,0.00176755,0.01906543,-0.01796747,0.00436065,0.00103313,0.000
 32566,0.00027311,0.00000039,-0.00000135,-0.00000070,-0.00000122,-0.000
 00081,-0.00000162,-0.00000204,-0.00000010,-0.00000037,0.00000012,0.000
 00034,0.00000164,0.00000668,-0.00000509,0.00000043,-0.00025010,-0.0000
 3687,-0.00006497,-0.00101351,0.00374225,-0.00052724,-0.00001032,-0.000
 01168,-0.00002424,0.00037157,0.00008925,0.00005767,0.00031452,0.000015
 24,-0.00062907,-0.00009445,0.00001512,0.00037306,0.00003431,0.00002759
 ,0.00000933,-0.00016339,-0.00010949,-0.00020503,0.00013589,0.00007576,
 -0.00010844,-0.00005102,-0.00001499,-0.00015275,-0.00001179,-0.0000085
 6,0.00000008,-0.00001130,-0.00000895,-0.00000359,0.00002942,0.00004111
 ,0.00000212,0.00006374,0.00001345,0.00004038,-0.00009955,0.00002665,0.
 00001386,0.00000772,0.00000801,0.00000977,0.00001289,0.00016427,-0.000
 03962,0.00004476,0.00000923,0.00001270,0.00002665,-0.00000124,-0.00001
 723,0.00002339,-0.00002760,-0.00000070,-0.00000248,-0.00000278,-0.0000
 0126,-0.00000456,-0.00000023,-0.00000501,-0.00000103,-0.00000550,-0.00
 000461,-0.00002848,-0.00006258,0.00002254,0.00000957,-0.00003207,0.000
 01554,0.00002434,-0.00005373,-0.00002626,-0.00006672,-0.00022773,-0.00
 029201,0.00012993,-0.00008035,0.00015963,0.00001227,-0.00001456,-0.000
 01161,-0.00001221,-0.00001001,0.00001378,-0.00000864,0.00000399,-0.000
 00288,0.00000595,0.00000499,-0.00000107,0.00002222,-0.00000255,0.00001
 383,-0.00000198,0.00001268,-0.00000768,0.00000009,0.00000140,-0.000000
 51,0.00000462,-0.00000335,0.00000361,0.00000051,0.00000070,0.00000171,
 0.00000446,0.00000365,-0.00000530,0.00000428,0.00000441,-0.00000041,-0
 .00001681,0.00002030,-0.00003392,0.00000058,-0.00000165,-0.00000574,-0
 .00000878,0.00001554,0.00000531,-0.00000272,0.00000145,-0.00000137,-0.
 00007389,0.00065734,-0.00056403,0.00003977,-0.00029398,0.00023255,-0.0
 0018660,-0.00015520,0.00012878,0.00000839,-0.00000030,0.00001089,0.000
 00629,-0.00000062,-0.00001227,0.00003910,0.00000328,0.00006834,0.13864
 176,-0.15895909,0.02952640,0.00533382,-0.00517261,0.00236302,-0.011894
 83,0.01138121,-0.00190069,-0.14839925,0.16787534,-0.00007114,-0.000017
 66,0.00004110,0.00001419,0.00002605,0.00001278,0.00000731,0.00000672,0
 .00001103,-0.00000710,-0.00000383,0.00000918,-0.00000597,-0.00001799,-
 0.00000118,-0.00004050,0.00001334,-0.00004017,0.00222705,0.00028021,-0
 .00105682,-0.01324541,0.01574901,-0.00825706,-0.00080353,0.00000307,-0
 .00069041,0.00000372,0.00000778,0.00000621,-0.00000149,-0.00000179,-0.
 00000102,-0.00000127,0.00000159,0.00000119,0.00000271,-0.00000263,0.00
 000079,-0.00002848,0.00000162,0.00000297,0.00009551,-0.00007793,0.0001
 5443,-0.00083052,-0.00350162,0.00137935,-0.00001889,-0.00007439,0.0000
 3806,-0.00018584,-0.00008401,-0.00023301,-0.00044802,-0.00006538,0.001
 03797,0.00048350,-0.00001931,-0.00095833,-0.00001065,0.00006963,-0.000
 04722,0.00006710,0.00007187,0.00038955,-0.00032079,-0.00013892,0.00019
 382,0.00002488,0.00003950,0.00035195,-0.00000675,-0.00004974,0.0000103
 0,0.00001480,-0.00002014,0.00001465,-0.00004782,-0.00002015,-0.0000783
 2,0.00007688,0.00004264,-0.00012649,0.00003386,-0.00001558,-0.00000527
 ,0.00001819,0.00002438,0.00001885,0.00011650,-0.00025526,0.00003646,-0
 .00003248,-0.00001242,-0.00001513,-0.00000275,-0.00000171,-0.00000837,
 -0.00001435,0.00001209,-0.00000448,-0.00001204,-0.00001191,0.00000306,
 -0.00000567,-0.00000429,-0.00000437,-0.00000081,-0.00001496,-0.0000104
 5,-0.00000453,0.00007674,0.00001275,-0.00007654,0.00005450,-0.00002493
 ,-0.00010019,0.00011467,0.00010649,0.00068259,-0.00070839,-0.00015286,
 0.00000631,0.00016140,0.00004095,0.00006432,0.00005128,0.00008572,-0.0
 0001755,0.00001563,-0.00000603,0.00001632,-0.00004602,0.00000403,-0.00
 001038,-0.00000482,-0.00000444,-0.00001603,0.00003403,-0.00000923,-0.0
 0000329,-0.00000199,0.00001150,-0.00000086,0.00000061,0.00000021,0.000
 00579,0.00000279,0.00000637,-0.00000097,0.00000249,0.00000153,0.000001
 41,-0.00000044,0.00000307,0.00000260,0.00001030,0.00000912,0.00001353,
 -0.00000426,0.00000597,-0.00001216,0.00004823,-0.00001356,0.00000650,-
 0.00000321,-0.00000345,0.00000102,-0.00000103,0.00000038,0.00013687,0.
 00062341,-0.00012422,0.00030097,0.00038980,-0.00009348,0.00020776,0.00
 013917,-0.00013403,-0.00000887,-0.00000599,-0.00002263,0.00001045,-0.0
 0000785,0.00002748,-0.00002403,-0.00001071,-0.00007613,-0.03803031,0.0
 2945210,-0.04107679,0.01957800,-0.01684051,0.00532488,-0.00781538,0.00
 937150,-0.00225493,0.03804271,-0.03485127,0.04618061\\0.00000534,-0.00
 000669,-0.00000009,0.00000161,-0.00000556,0.00000704,0.00000432,-0.000
 00735,0.00000569,0.00000505,-0.00001019,0.00000665,0.00000595,-0.00000
 969,0.00000768,0.00000566,-0.00000755,0.00000662,-0.00000690,0.0000036
 6,0.00000579,-0.00000415,-0.00001113,-0.00000105,-0.00000425,0.0000060
 8,-0.00001151,0.00000095,-0.00000390,0.00000416,0.00000307,-0.00000743
 ,0.00000630,0.00000774,-0.00001062,0.00000739,0.00000880,-0.00001156,0
 .00000713,0.00000626,-0.00000755,0.00000680,-0.00000694,-0.00000996,0.
 00001731,0.00000930,0.00000513,-0.00000384,-0.00000903,0.00000365,-0.0
 0000558,-0.00000333,-0.00000021,-0.00001005,0.00000427,0.00000048,-0.0
 0001031,-0.00000392,0.00000408,-0.00000165,0.00000122,0.00000778,0.000
 00223,0.00000500,0.00000734,-0.00001562,0.00000051,0.00000635,-0.00000
 145,-0.00000271,0.00000427,-0.00000392,-0.00001182,0.00000346,-0.00000
 345,-0.00001188,0.00000348,-0.00000268,-0.00000056,0.00000546,0.,0.000
 00783,0.00000150,-0.00000641,0.00000375,0.00000205,-0.00000721,-0.0000
 0822,0.00000372,-0.00000782,0.00000077,0.00000319,-0.00000737,0.000006
 32,0.00000755,-0.00001139,0.00000347,0.00001011,-0.00001531,0.00000795
 ,0.00000862,-0.00001245,-0.00000981,0.00000871,-0.00000005,-0.00000307
 ,0.00000783,-0.00000510,-0.00000526,0.00000781,0.00000033,0.00000402,0
 .00000565,-0.00000851,0.00000502,0.00000777,-0.00000998,0.00000222,0.0
 0000931,-0.00001270,0.00000426,-0.00000938,0.00000694,0.00000378,-0.00
 000735,0.00000480,-0.00000659,-0.00000770,0.00000283,-0.00000158,-0.00
 000395,0.00001208,-0.00000278,-0.00000712,0.00000634,-0.00000201,0.000
 00450,0.00000477,-0.00000177,0.00000075,0.00000853,-0.00000485,-0.0000
 0442,-0.00000057,-0.00001212,0.00000065,0.00000372,0.00000130,-0.00000
 362,0.00000121,-0.00000521,0.00000357,0.00000436,0.00000158,-0.0000089
 3,0.00000826,-0.00000443,-0.00000419,0.00001070,0.00000060,-0.00000079
 ,0.00000240,-0.00000003,-0.00000061,0.00000056,-0.00001390,-0.00000263
 ,0.00000962,-0.00000548,-0.00000498,0.00000920,0.00000429,0.00000170,-
 0.00000378,0.00002248,0.00001907,-0.00001670,-0.00000380,0.00000300,0.
 00000682,-0.00000506,0.00000060,0.00000139,-0.00000862,-0.00000118,0.0
 0000128,-0.00000642,0.00000277,0.00000223,0.00001113,-0.00000388,-0.00
 000070,0.00000328,-0.00000305,0.00000015,0.00000139,0.00000001,-0.0000
 0061,0.00000605,0.00000148,-0.00000146\\\@


 Other things may change us, but we start and end with family.
 -- Anthony Brandt
 Job cpu time:       6 days 16 hours 33 minutes 33.4 seconds.
 Elapsed time:       0 days  6 hours 41 minutes 33.5 seconds.
 File lengths (MBytes):  RWF=  12756 Int=      0 D2E=      0 Chk=     88 Scr=      8
 Normal termination of Gaussian 16 at Fri Mar  7 09:40:52 2025.
