 Entering Gaussian System, Link 0=/sysapps/ubuntu-applications/gaussian-new/avx/g16//g16
 Input=irc-yb-maj.in
 Output=irc-yb-maj.log
 Initial command:
 /sysapps/ubuntu-applications/gaussian-new/avx/g16/l1.exe "/scratch/selhajj1/7614197/Gau-1787145.inp" -scrdir="/scratch/selhajj1/7614197/"
 Entering Link 1 = /sysapps/ubuntu-applications/gaussian-new/avx/g16/l1.exe PID=   1787147.
  
 Copyright (c) 1988,1990,1992,1993,1995,1998,2003,2009,2016,
            Gaussian, Inc.  All Rights Reserved.
  
 This is part of the Gaussian(R) 16 program.  It is based on
 the Gaussian(R) 09 system (copyright 2009, Gaussian, Inc.),
 the Gaussian(R) 03 system (copyright 2003, Gaussian, Inc.),
 the Gaussian(R) 98 system (copyright 1998, Gaussian, Inc.),
 the Gaussian(R) 94 system (copyright 1995, Gaussian, Inc.),
 the Gaussian 92(TM) system (copyright 1992, Gaussian, Inc.),
 the Gaussian 90(TM) system (copyright 1990, Gaussian, Inc.),
 the Gaussian 88(TM) system (copyright 1988, Gaussian, Inc.),
 the Gaussian 86(TM) system (copyright 1986, Carnegie Mellon
 University), and the Gaussian 82(TM) system (copyright 1983,
 Carnegie Mellon University). Gaussian is a federally registered
 trademark of Gaussian, Inc.
  
 This software contains proprietary and confidential information,
 including trade secrets, belonging to Gaussian, Inc.
  
 This software is provided under written license and may be
 used, copied, transmitted, or stored only in accord with that
 written license.
  
 The following legend is applicable only to US Government
 contracts under FAR:
  
                    RESTRICTED RIGHTS LEGEND
  
 Use, reproduction and disclosure by the US Government is
 subject to restrictions as set forth in subparagraphs (a)
 and (c) of the Commercial Computer Software - Restricted
 Rights clause in FAR 52.227-19.
  
 Gaussian, Inc.
 340 Quinnipiac St., Bldg. 40, Wallingford CT 06492
  
  
 ---------------------------------------------------------------
 Warning -- This program may not be used in any manner that
 competes with the business of Gaussian, Inc. or will provide
 assistance to any competitor of Gaussian, Inc.  The licensee
 of this program is prohibited from giving any competitor of
 Gaussian, Inc. access to this program.  By using this program,
 the user acknowledges that Gaussian, Inc. is engaged in the
 business of creating and licensing software in the field of
 computational chemistry and represents and warrants to the
 licensee that it is not a competitor of Gaussian, Inc. and that
 it will not use this program in any manner prohibited above.
 ---------------------------------------------------------------
  

 Cite this work as:
 Gaussian 16, Revision A.03,
 M. J. Frisch, G. W. Trucks, H. B. Schlegel, G. E. Scuseria, 
 M. A. Robb, J. R. Cheeseman, G. Scalmani, V. Barone, 
 G. A. Petersson, H. Nakatsuji, X. Li, M. Caricato, A. V. Marenich, 
 J. Bloino, B. G. Janesko, R. Gomperts, B. Mennucci, H. P. Hratchian, 
 J. V. Ortiz, A. F. Izmaylov, J. L. Sonnenberg, D. Williams-Young, 
 F. Ding, F. Lipparini, F. Egidi, J. Goings, B. Peng, A. Petrone, 
 T. Henderson, D. Ranasinghe, V. G. Zakrzewski, J. Gao, N. Rega, 
 G. Zheng, W. Liang, M. Hada, M. Ehara, K. Toyota, R. Fukuda, 
 J. Hasegawa, M. Ishida, T. Nakajima, Y. Honda, O. Kitao, H. Nakai, 
 T. Vreven, K. Throssell, J. A. Montgomery, Jr., J. E. Peralta, 
 F. Ogliaro, M. J. Bearpark, J. J. Heyd, E. N. Brothers, K. N. Kudin, 
 V. N. Staroverov, T. A. Keith, R. Kobayashi, J. Normand, 
 K. Raghavachari, A. P. Rendell, J. C. Burant, S. S. Iyengar, 
 J. Tomasi, M. Cossi, J. M. Millam, M. Klene, C. Adamo, R. Cammi, 
 J. W. Ochterski, R. L. Martin, K. Morokuma, O. Farkas, 
 J. B. Foresman, and D. J. Fox, Gaussian, Inc., Wallingford CT, 2016.
 
 ******************************************
 Gaussian 16:  ES64L-G16RevA.03 25-Dec-2016
                26-Feb-2025 
 ******************************************
 %chk=ts-major.chk
 %mem=616Gb
 %nprocshared=24
 Will use up to   24 processors via shared memory.
 ----------------------------------------------------------------------
 # irc=(maxpoints=100,recorrect=never,calcfc,maxcycles=500,nogradstop) 
 UMN15/genecp scrf=(smd,solvent=DiChloroEthane)
 ----------------------------------------------------------------------
 1/6=500,10=4,18=10,26=3,38=1,42=100,44=3,108=-1,131=1,172=1/1,23;
 2/12=2,17=6,18=5,29=1,40=1/2;
 3/5=7,11=2,16=1,17=8,25=1,30=1,70=32201,71=2,72=10,74=-73,116=2,140=1/1,2,3;
 4//1;
 5/5=2,38=5,53=10/2;
 8/6=4,10=90,11=11/1;
 11/6=1,8=1,9=11,15=111,16=1/1,2,10;
 10/6=1,13=1/2;
 6/7=2,8=2,9=2,10=2,28=1/1;
 7/10=1,18=20,25=1/1,2,3,16;
 1/6=500,10=4,18=10,26=3,42=100,44=3,108=-1,131=1/23(2);
 2/29=1/2;
 99/5=20/99;
 2/29=1/2;
 3/5=7,6=1,11=2,16=1,17=8,25=1,30=1,70=32205,71=2,72=10,74=-73,82=7,116=2,140=1/1,2,3;
 4/5=5,16=3,69=1/1;
 5/5=2,38=5,53=10/2;
 8/6=4,10=90,11=11/1;
 11/6=1,8=1,9=11,15=111,16=1/1,2,10;
 10/6=1,13=1/2;
 7/10=1,18=20,25=1/1,2,3,16;
 1/6=500,18=10,26=3,42=100,44=3,108=-1,131=1/23(-8);
 2/29=1/2;
 6/7=2,8=2,9=2,10=2,19=2,28=1/1;
 99/5=20,9=1/99;
 -----------------------------------------------------------
 IRC for Going from i2 to i3, where we are forming bond 7-66
 -----------------------------------------------------------
 Symbolic Z-matrix:
 Charge =  0 Multiplicity = 2
 C                     5.5023    0.64679   0.22557 
 C                     5.8851    0.4493   -1.10768 
 C                     7.10623   0.95352  -1.55476 
 C                     7.94454   1.6453   -0.67626 
 C                     7.55961   1.84322   0.65188 
 C                     6.33598   1.34868   1.10413 
 C                     1.98981  -0.33894  -0.14035 
 C                     1.14805   0.37895   0.89229 
 C                     1.26377  -0.66203  -1.42076 
 H                     5.22408  -0.08629  -1.79255 
 H                     7.40311   0.80589  -2.59505 
 H                     8.90032   2.03728  -1.03079 
 H                     8.20907   2.39162   1.33701 
 H                     6.02376   1.51      2.13938 
 O                     0.05239  -0.74472  -1.47341 
 O                     0.02818   0.00478   1.17936 
 O                     1.75675   1.405     1.4225 
 O                     2.07317  -0.93868  -2.40378 
 C                     0.97505   2.20601   2.32872 
 C                     1.43928  -1.32078  -3.63902 
 H                     1.62826   3.02228   2.65079 
 H                     0.65526   1.59486   3.18285 
 H                     0.09086   2.58314   1.7985 
 H                     2.24542  -1.60707  -4.32055 
 H                     0.87858  -0.46123  -4.02816 
 H                     0.75523  -2.16019  -3.4526 
 O                    -1.93678  -2.2857    0.07123 
 O                    -2.24205   2.14417   1.3875 
 O                    -0.11043   1.99691  -0.79839 
 S                    -0.45022   2.12743  -2.23417 
 S                    -2.12762  -2.76027  -1.32355 
 S                    -2.65385   1.28302   2.52086 
 O                    -1.74008   1.45976  -2.52107 
 O                     0.63598   1.88103  -3.16969 
 O                    -2.57614  -1.65316  -2.18629 
 O                    -1.07628  -3.63073  -1.8347 
 O                    -2.80637  -0.11816   2.06479 
 O                    -1.9753    1.49525   3.78589 
 C                    -4.38876   1.80409   2.81918 
 C                    -3.6055   -3.84055  -1.19106 
 C                    -0.84274   3.91017  -2.4215 
 F                    -4.93268   1.06707   3.77557 
 F                    -5.09653   1.65077   1.7048 
 F                    -4.42931   3.07769   3.17953 
 F                    -3.92353  -4.32322  -2.38183 
 F                    -4.62868  -3.14049  -0.72078 
 F                    -3.35795  -4.84787  -0.36757 
 F                     0.21231   4.6402   -2.09492 
 F                    -1.85424   4.23304  -1.62888 
 F                    -1.17728   4.1692   -3.67594 
 C                     4.20929   0.07808   0.73895 
 H                     3.81808   0.66591   1.58224 
 C                     4.38905  -1.39774   1.30768 
 C                     5.19608  -1.3404    2.53624 
 C                     5.05096  -2.26066   0.31123 
 C                     0.93522  -2.75906   0.84832 
 C                     1.40377  -2.19699   3.13101 
 C                     0.52255  -2.73633   2.15453 
 H                     0.31108  -3.1335    0.03459 
 H                     1.10587  -2.09556   4.1765 
 H                    -0.46082  -3.10715   2.44592 
 N                     5.87954  -1.24992   3.4638 
 N                     5.56825  -2.91588  -0.48867 
 N                     3.04504  -1.92591   1.60634 
 N                     2.63167  -1.80795   2.85238 
 C                     2.21384  -2.20487   0.53665 
 H                     2.72671  -2.51249  -0.38288 
 O                     3.27656  -0.00278  -0.3226 
 Yb                   -2.04665   0.19102  -0.33604 
 
 IRC-IRC-IRC-IRC-IRC-IRC-IRC-IRC-IRC-IRC-IRC-IRC-IRC-IRC-IRC-IRC-IRC-IRC
 ------------------------------------------------------------------------
 INPUT DATA FOR L123
 ------------------------------------------------------------------------
 GENERAL PARAMETERS:
 Follow reaction path in both directions.
 Maximum points per path      = 100
 Step size                    =   0.100 bohr
 Integration scheme           = HPC                                 
    Redo corrector integration= Never                               
    DWI Weight Power          =  2
    DWI will use Hessian update vectors when possible.
 Initial Hessian              = CalcFC
 Hessian evaluation           = All updating
 Hessian updating method      = Bofill                              
 ------------------------------------------------------------------------
 IRC-IRC-IRC-IRC-IRC-IRC-IRC-IRC-IRC-IRC-IRC-IRC-IRC-IRC-IRC-IRC-IRC-IRC
 Symmetry turned off by external request.
 Stoichiometry    C22H16F9N4O14S3Yb(2)
 Framework group  C1[X(C22H16F9N4O14S3Yb)]
 Deg. of freedom   201
 Full point group                 C1      NOp   1
                          Input orientation:                          
 ---------------------------------------------------------------------
 Center     Atomic      Atomic             Coordinates (Angstroms)
 Number     Number       Type             X           Y           Z
 ---------------------------------------------------------------------
      1          6           0        5.502298    0.646787    0.225570
      2          6           0        5.885098    0.449303   -1.107677
      3          6           0        7.106232    0.953523   -1.554763
      4          6           0        7.944535    1.645297   -0.676258
      5          6           0        7.559607    1.843217    0.651878
      6          6           0        6.335979    1.348676    1.104130
      7          6           0        1.989811   -0.338939   -0.140346
      8          6           0        1.148045    0.378945    0.892285
      9          6           0        1.263772   -0.662027   -1.420757
     10          1           0        5.224081   -0.086288   -1.792548
     11          1           0        7.403106    0.805894   -2.595047
     12          1           0        8.900317    2.037279   -1.030792
     13          1           0        8.209071    2.391624    1.337006
     14          1           0        6.023762    1.509999    2.139376
     15          8           0        0.052387   -0.744723   -1.473410
     16          8           0        0.028184    0.004778    1.179363
     17          8           0        1.756753    1.405000    1.422495
     18          8           0        2.073171   -0.938675   -2.403782
     19          6           0        0.975046    2.206013    2.328721
     20          6           0        1.439275   -1.320777   -3.639021
     21          1           0        1.628258    3.022277    2.650786
     22          1           0        0.655262    1.594860    3.182853
     23          1           0        0.090863    2.583136    1.798500
     24          1           0        2.245423   -1.607069   -4.320548
     25          1           0        0.878577   -0.461230   -4.028164
     26          1           0        0.755233   -2.160194   -3.452596
     27          8           0       -1.936780   -2.285698    0.071226
     28          8           0       -2.242051    2.144172    1.387496
     29          8           0       -0.110426    1.996908   -0.798387
     30         16           0       -0.450223    2.127434   -2.234173
     31         16           0       -2.127621   -2.760273   -1.323546
     32         16           0       -2.653850    1.283024    2.520857
     33          8           0       -1.740084    1.459757   -2.521072
     34          8           0        0.635982    1.881025   -3.169692
     35          8           0       -2.576137   -1.653162   -2.186290
     36          8           0       -1.076281   -3.630725   -1.834701
     37          8           0       -2.806369   -0.118159    2.064789
     38          8           0       -1.975299    1.495251    3.785891
     39          6           0       -4.388764    1.804091    2.819181
     40          6           0       -3.605502   -3.840545   -1.191056
     41          6           0       -0.842736    3.910170   -2.421501
     42          9           0       -4.932675    1.067074    3.775573
     43          9           0       -5.096530    1.650765    1.704797
     44          9           0       -4.429307    3.077686    3.179532
     45          9           0       -3.923526   -4.323224   -2.381828
     46          9           0       -4.628681   -3.140492   -0.720782
     47          9           0       -3.357949   -4.847865   -0.367571
     48          9           0        0.212310    4.640201   -2.094919
     49          9           0       -1.854243    4.233035   -1.628878
     50          9           0       -1.177284    4.169195   -3.675937
     51          6           0        4.209293    0.078084    0.738947
     52          1           0        3.818082    0.665914    1.582242
     53          6           0        4.389047   -1.397735    1.307680
     54          6           0        5.196081   -1.340400    2.536242
     55          6           0        5.050959   -2.260655    0.311229
     56          6           0        0.935215   -2.759061    0.848318
     57          6           0        1.403766   -2.196988    3.131012
     58          6           0        0.522554   -2.736325    2.154534
     59          1           0        0.311084   -3.133498    0.034588
     60          1           0        1.105870   -2.095555    4.176499
     61          1           0       -0.460820   -3.107146    2.445924
     62          7           0        5.879535   -1.249922    3.463795
     63          7           0        5.568252   -2.915876   -0.488674
     64          7           0        3.045038   -1.925906    1.606343
     65          7           0        2.631666   -1.807946    2.852379
     66          6           0        2.213837   -2.204872    0.536647
     67          1           0        2.726707   -2.512492   -0.382875
     68          8           0        3.276560   -0.002776   -0.322597
     69         70           0       -2.046654    0.191018   -0.336040
 ---------------------------------------------------------------------
 Rotational constants (GHZ):           0.0604956           0.0354113           0.0328265
 General basis read from cards:  (5D, 7F)
 ======================================================================================================
                                       Pseudopotential Parameters
 ======================================================================================================
  Center     Atomic      Valence      Angular      Power
  Number     Number     Electrons     Momentum     of R      Exponent        Coefficient   SO-Coeffient
 ======================================================================================================
    1          6
                                   No pseudopotential on this center.
    2          6
                                   No pseudopotential on this center.
    3          6
                                   No pseudopotential on this center.
    4          6
                                   No pseudopotential on this center.
    5          6
                                   No pseudopotential on this center.
    6          6
                                   No pseudopotential on this center.
    7          6
                                   No pseudopotential on this center.
    8          6
                                   No pseudopotential on this center.
    9          6
                                   No pseudopotential on this center.
   10          1
                                   No pseudopotential on this center.
   11          1
                                   No pseudopotential on this center.
   12          1
                                   No pseudopotential on this center.
   13          1
                                   No pseudopotential on this center.
   14          1
                                   No pseudopotential on this center.
   15          8
                                   No pseudopotential on this center.
   16          8
                                   No pseudopotential on this center.
   17          8
                                   No pseudopotential on this center.
   18          8
                                   No pseudopotential on this center.
   19          6
                                   No pseudopotential on this center.
   20          6
                                   No pseudopotential on this center.
   21          1
                                   No pseudopotential on this center.
   22          1
                                   No pseudopotential on this center.
   23          1
                                   No pseudopotential on this center.
   24          1
                                   No pseudopotential on this center.
   25          1
                                   No pseudopotential on this center.
   26          1
                                   No pseudopotential on this center.
   27          8
                                   No pseudopotential on this center.
   28          8
                                   No pseudopotential on this center.
   29          8
                                   No pseudopotential on this center.
   30         16
                                   No pseudopotential on this center.
   31         16
                                   No pseudopotential on this center.
   32         16
                                   No pseudopotential on this center.
   33          8
                                   No pseudopotential on this center.
   34          8
                                   No pseudopotential on this center.
   35          8
                                   No pseudopotential on this center.
   36          8
                                   No pseudopotential on this center.
   37          8
                                   No pseudopotential on this center.
   38          8
                                   No pseudopotential on this center.
   39          6
                                   No pseudopotential on this center.
   40          6
                                   No pseudopotential on this center.
   41          6
                                   No pseudopotential on this center.
   42          9
                                   No pseudopotential on this center.
   43          9
                                   No pseudopotential on this center.
   44          9
                                   No pseudopotential on this center.
   45          9
                                   No pseudopotential on this center.
   46          9
                                   No pseudopotential on this center.
   47          9
                                   No pseudopotential on this center.
   48          9
                                   No pseudopotential on this center.
   49          9
                                   No pseudopotential on this center.
   50          9
                                   No pseudopotential on this center.
   51          6
                                   No pseudopotential on this center.
   52          1
                                   No pseudopotential on this center.
   53          6
                                   No pseudopotential on this center.
   54          6
                                   No pseudopotential on this center.
   55          6
                                   No pseudopotential on this center.
   56          6
                                   No pseudopotential on this center.
   57          6
                                   No pseudopotential on this center.
   58          6
                                   No pseudopotential on this center.
   59          1
                                   No pseudopotential on this center.
   60          1
                                   No pseudopotential on this center.
   61          1
                                   No pseudopotential on this center.
   62          7
                                   No pseudopotential on this center.
   63          7
                                   No pseudopotential on this center.
   64          7
                                   No pseudopotential on this center.
   65          7
                                   No pseudopotential on this center.
   66          6
                                   No pseudopotential on this center.
   67          1
                                   No pseudopotential on this center.
   68          8
                                   No pseudopotential on this center.
   69         70           42
                                      H and up 
                                                     2        1.0000000        0.00000000    0.00000000
                                      S - H
                                                     2       32.4244840      891.01377700    0.00000000
                                      P - H
                                                     2       18.6562320      264.03695300    0.00000000
                                      D - H
                                                     2       10.4902220       73.92391900    0.00000000
                                      F - H
                                                     2       20.7741830      -39.59217300    0.00000000
                                      G - H
                                                     2       28.4310280      -34.63863800    0.00000000
 ======================================================================================================
   916 basis functions,  1662 primitive gaussians,   991 cartesian basis functions
   230 alpha electrons      229 beta electrons
       nuclear repulsion energy     11456.5272155701 Hartrees.
 NAtoms=   69 NActive=   69 NUniq=   69 SFac= 1.00D+00 NAtFMM=   60 NAOKFM=T Big=T
 Integral buffers will be    131072 words long.
 Raffenetti 2 integral format.
 Two-electron integral symmetry is turned off.
 Force inversion solution in PCM.
 ------------------------------------------------------------------------------
 Polarizable Continuum Model (PCM)
 =================================
 Model                : PCM.
 Atomic radii         : SMD-Coulomb.
 Polarization charges : Total charges.
 Charge compensation  : None.
 Solution method      : Matrix inversion.
 Cavity type          : VdW (van der Waals Surface) (Alpha=1.000).
 Cavity algorithm     : GePol (No added spheres)
                        Default sphere list used, NSphG=   69.
                        Lebedev-Laikov grids with approx.  5.0 points / Ang**2.
                        Smoothing algorithm: York/Karplus (Gamma=1.0000).
                        Polarization charges: spherical gaussians, with
                                              point-specific exponents (IZeta= 3).
                        Self-potential: point-specific (ISelfS= 7).
                        Self-field    : sphere-specific E.n sum rule (ISelfD= 2).
 1st derivatives      : Analytical E(r).r(x)/FMM algorithm (CHGder, D1EAlg=3).
                        Cavity 1st derivative terms included.
 2nd derivatives      : Analytical E(r).r(xy)/FMM algorithm (CHGder, D2EAlg=3).
                        Cavity 2nd derivative terms included.
 Solvent              : DiChloroEthane, Eps=  10.125000 Eps(inf)=   2.087447
 ------------------------------------------------------------------------------
 ------------------------------------------------------------------------------
 Atomic radii for non-electrostatic terms: SMD-CDS.
 ------------------------------------------------------------------------------
 Nuclear repulsion after PCM non-electrostatic terms =    11456.5350405042 Hartrees.
 One-electron integrals computed using PRISM.
   1 Symmetry operations used in ECPInt.
 ECPInt:  NShTT=   77815 NPrTT=  297642 LenC2=   59461 LenP2D=  137810.
 LDataN:  DoStor=T MaxTD1= 9 Len=  602
 NBasis=   916 RedAO= T EigKep=  2.37D-04  NBF=   916
 NBsUse=   916 1.00D-06 EigRej= -1.00D+00 NBFU=   916
 Defaulting to unpruned grid for atomic number  70.
 ExpMin= 2.50D-02 ExpMax= 9.20D+04 ExpMxC= 1.38D+04 IAcc=3 IRadAn=         5 AccDes= 0.00D+00
 Harris functional with IExCor= 1009 and IRadAn=       5 diagonalized for initial guess.
 HarFok:  IExCor= 1009 AccDes= 0.00D+00 IRadAn=         5 IDoV= 1 UseB2=F ITyADJ=14
 ICtDFT=  3500011 ScaDFX=  1.000000  1.000000  1.000000  1.000000
 Defaulting to unpruned grid for atomic number  70.
 FoFCou: FMM=F IPFlag=           0 FMFlag=      100000 FMFlg1=        2001
         NFxFlg=           0 DoJE=T BraDBF=F KetDBF=T FulRan=T
         wScrn=  0.000000 ICntrl=       500 IOpCl=  0 I1Cent=   200000004 NGrid=           0
         NMat0=    1 NMatS0=      1 NMatT0=    0 NMatD0=    1 NMtDS0=    0 NMtDT0=    0
 Symmetry not used in FoFCou.
 Initial guess <Sx>= 0.0000 <Sy>= 0.0000 <Sz>= 0.5000 <S**2>= 0.7500 S= 0.5000
 Requested convergence on RMS density matrix=1.00D-08 within 128 cycles.
 Requested convergence on MAX density matrix=1.00D-06.
 Requested convergence on             energy=1.00D-06.
 No special actions if energy rises.
 Defaulting to unpruned grid for atomic number  70.
 Defaulting to unpruned grid for atomic number  70.
 Defaulting to unpruned grid for atomic number  70.
 Defaulting to unpruned grid for atomic number  70.
 Defaulting to unpruned grid for atomic number  70.
 Defaulting to unpruned grid for atomic number  70.
 Defaulting to unpruned grid for atomic number  70.
 Defaulting to unpruned grid for atomic number  70.
 Defaulting to unpruned grid for atomic number  70.
 Defaulting to unpruned grid for atomic number  70.
 Defaulting to unpruned grid for atomic number  70.
 Defaulting to unpruned grid for atomic number  70.
 Defaulting to unpruned grid for atomic number  70.
 Defaulting to unpruned grid for atomic number  70.
 Defaulting to unpruned grid for atomic number  70.
 Defaulting to unpruned grid for atomic number  70.
 Defaulting to unpruned grid for atomic number  70.
 Defaulting to unpruned grid for atomic number  70.
 Defaulting to unpruned grid for atomic number  70.
 Defaulting to unpruned grid for atomic number  70.
 Defaulting to unpruned grid for atomic number  70.
 Defaulting to unpruned grid for atomic number  70.
 Defaulting to unpruned grid for atomic number  70.
 Defaulting to unpruned grid for atomic number  70.
 Inv3:  Mode=1 IEnd=    71648307.
 Iteration    1 A*A^-1 deviation from unit magnitude is 1.31D-14 for   4857.
 Iteration    1 A*A^-1 deviation from orthogonality  is 3.89D-15 for   4887   3604.
 Iteration    1 A^-1*A deviation from unit magnitude is 1.31D-14 for   4857.
 Iteration    1 A^-1*A deviation from orthogonality  is 6.55D-15 for   4856   4841.
 EnCoef did     4 forward-backward iterations
 EnCoef did   100 forward-backward iterations
 EnCoef did     1 forward-backward iterations
 EnCoef did     3 forward-backward iterations
 EnCoef did     5 forward-backward iterations
 Restarting incremental Fock formation.
 Error on total polarization charges =  0.03113
 SCF Done:  E(UMN15) =  -5368.78022909     A.U. after   26 cycles
            NFock= 26  Conv=0.25D-08     -V/T= 2.0908
 <Sx>= 0.0000 <Sy>= 0.0000 <Sz>= 0.5000 <S**2>= 0.7615 S= 0.5057
 <L.S>=  0.00000000000    
 SMD-CDS (non-electrostatic) energy       (kcal/mol) =       4.91
 (included in total energy above)
 Annihilation of the first spin contaminant:
 S**2 before annihilation     0.7615,   after     0.7501
 DoSCS=F DFT=T ScalE2(SS,OS)=  1.000000  1.000000
 Range of M.O.s used for correlation:     1   916
 NBasis=   916 NAE=   230 NBE=   229 NFC=     0 NFV=     0
 NROrb=    916 NOA=   230 NOB=   229 NVA=   686 NVB=   687

 **** Warning!!: The largest alpha MO coefficient is  0.12751912D+02


 **** Warning!!: The largest beta MO coefficient is  0.12751912D+02


 **** Warning!!: The smallest beta delta epsilon is  0.96326191D-01

   1 Symmetry operations used in ECPInt.
 ECPInt:  NShTT=   77815 NPrTT=  297642 LenC2=   59461 LenP2D=  137810.
 LDataN:  DoStor=T MaxTD1=10 Len=  848
 Symmetrizing basis deriv contribution to polar:
 IMax=3 JMax=2 DiffMx= 0.00D+00
 G2DrvN: will do    70 centers at a time, making    1 passes.
 Calling FoFCou, ICntrl=  3107 FMM=T I1Cent=   0 AccDes= 0.00D+00.
 Defaulting to unpruned grid for atomic number  70.
 Defaulting to unpruned grid for atomic number  70.
 Defaulting to unpruned grid for atomic number  70.
 Defaulting to unpruned grid for atomic number  70.
 Defaulting to unpruned grid for atomic number  70.
 Defaulting to unpruned grid for atomic number  70.
 Defaulting to unpruned grid for atomic number  70.
 Defaulting to unpruned grid for atomic number  70.
 Defaulting to unpruned grid for atomic number  70.
 Defaulting to unpruned grid for atomic number  70.
 Defaulting to unpruned grid for atomic number  70.
 Defaulting to unpruned grid for atomic number  70.
 Defaulting to unpruned grid for atomic number  70.
 Defaulting to unpruned grid for atomic number  70.
 Defaulting to unpruned grid for atomic number  70.
 Defaulting to unpruned grid for atomic number  70.
 Defaulting to unpruned grid for atomic number  70.
 Defaulting to unpruned grid for atomic number  70.
 Defaulting to unpruned grid for atomic number  70.
 Defaulting to unpruned grid for atomic number  70.
 Defaulting to unpruned grid for atomic number  70.
 Defaulting to unpruned grid for atomic number  70.
 Defaulting to unpruned grid for atomic number  70.
 Defaulting to unpruned grid for atomic number  70.
 NEqPCM:  Using equilibrium solvation (IEInf=0, Eps=  10.1250, EpsInf=   2.0874)
 G2PCM: DoFxE=T DoFxN=T DoGrad=T DoDP/DQ/DG/TGxP=FFFF NFrqRd=   0 IEInf=0 SqF1=F DoCFld=F IF1Alg=4.
 End of G2Drv F.D. properties file   721 does not exist.
 End of G2Drv F.D. properties file   722 does not exist.
 End of G2Drv F.D. properties file   788 does not exist.
          IDoAtm=11111111111111111111111111111111111111111111111111
          IDoAtm=1111111111111111111
 NEqPCM:  Using equilibrium solvation (IEInf=0, Eps=  10.1250, EpsInf=   2.0874)
          Differentiating once with respect to nuclear coordinates.
 Defaulting to unpruned grid for atomic number  70.
 CalDSu exits because no D1Ps are significant.
 Defaulting to unpruned grid for atomic number  70.
 Defaulting to unpruned grid for atomic number  70.
 Defaulting to unpruned grid for atomic number  70.
 Defaulting to unpruned grid for atomic number  70.
 Defaulting to unpruned grid for atomic number  70.
 Defaulting to unpruned grid for atomic number  70.
 Defaulting to unpruned grid for atomic number  70.
 Defaulting to unpruned grid for atomic number  70.
 Defaulting to unpruned grid for atomic number  70.
 Defaulting to unpruned grid for atomic number  70.
 Defaulting to unpruned grid for atomic number  70.
 Defaulting to unpruned grid for atomic number  70.
 Defaulting to unpruned grid for atomic number  70.
 Defaulting to unpruned grid for atomic number  70.
 Defaulting to unpruned grid for atomic number  70.
 Defaulting to unpruned grid for atomic number  70.
 Defaulting to unpruned grid for atomic number  70.
 Defaulting to unpruned grid for atomic number  70.
 Defaulting to unpruned grid for atomic number  70.
 Defaulting to unpruned grid for atomic number  70.
 Defaulting to unpruned grid for atomic number  70.
 Defaulting to unpruned grid for atomic number  70.
 Defaulting to unpruned grid for atomic number  70.
 Defaulting to unpruned grid for atomic number  70.
          There are   210 degrees of freedom in the 1st order CPHF.  IDoFFX=6 NUNeed=     0.
    207 vectors produced by pass  0 Test12= 3.15D-13 1.00D-09 XBig12= 3.83D-01 1.53D-01.
 AX will form    72 AO Fock derivatives at one time.
    204 vectors produced by pass  1 Test12= 3.15D-13 1.00D-09 XBig12= 1.54D-01 4.09D-02.
    204 vectors produced by pass  2 Test12= 3.15D-13 1.00D-09 XBig12= 2.64D-03 7.51D-03.
    204 vectors produced by pass  3 Test12= 3.15D-13 1.00D-09 XBig12= 5.04D-05 1.05D-03.
    204 vectors produced by pass  4 Test12= 3.15D-13 1.00D-09 XBig12= 8.77D-07 1.00D-04.
    204 vectors produced by pass  5 Test12= 3.15D-13 1.00D-09 XBig12= 8.99D-09 8.41D-06.
    202 vectors produced by pass  6 Test12= 3.15D-13 1.00D-09 XBig12= 7.06D-11 6.23D-07.
    130 vectors produced by pass  7 Test12= 3.15D-13 1.00D-09 XBig12= 5.90D-13 1.29D-07.
     33 vectors produced by pass  8 Test12= 3.15D-13 1.00D-09 XBig12= 6.38D-15 4.86D-09.
      3 vectors produced by pass  9 Test12= 3.15D-13 1.00D-09 XBig12= 9.85D-16 1.10D-09.
      1 vectors produced by pass 10 Test12= 3.15D-13 1.00D-09 XBig12= 1.49D-15 1.16D-09.
 InvSVY:  IOpt=1 It=  1 EMax= 1.11D-15
 Solved reduced A of dimension  1596 with   210 vectors.
 End of Minotr F.D. properties file   721 does not exist.
 End of Minotr F.D. properties file   722 does not exist.
 End of Minotr F.D. properties file   788 does not exist.

 **********************************************************************

            Population analysis using the SCF density.

 **********************************************************************

 Alpha  occ. eigenvalues --  -88.03493 -88.03465 -88.03153 -24.32821 -24.32756
 Alpha  occ. eigenvalues --  -24.32727 -24.32725 -24.32687 -24.32635 -24.32620
 Alpha  occ. eigenvalues --  -24.32545 -24.32532 -18.92834 -18.90330 -18.90025
 Alpha  occ. eigenvalues --  -18.85326 -18.85319 -18.81438 -18.81379 -18.81333
 Alpha  occ. eigenvalues --  -18.81178 -18.81069 -18.81064 -18.81021 -18.80836
 Alpha  occ. eigenvalues --  -18.80561 -16.28646 -14.28750 -14.21594 -14.15962
 Alpha  occ. eigenvalues --  -14.15567 -10.92017 -10.92010 -10.91973 -10.31517
 Alpha  occ. eigenvalues --  -10.31474 -10.31199 -10.24082 -10.23959 -10.23829
 Alpha  occ. eigenvalues --  -10.21422 -10.19219 -10.18990 -10.15543 -10.15003
 Alpha  occ. eigenvalues --  -10.14833 -10.13158 -10.12405 -10.11106 -10.11089
 Alpha  occ. eigenvalues --  -10.08760 -10.07351 -10.07215 -10.06639 -10.06558
 Alpha  occ. eigenvalues --  -10.06528  -7.93262  -7.93228  -7.92925  -6.12760
 Alpha  occ. eigenvalues --   -6.12727  -6.12723  -6.12702  -6.12684  -6.12648
 Alpha  occ. eigenvalues --   -6.12415  -6.12399  -6.12349  -5.00322  -5.00294
 Alpha  occ. eigenvalues --   -5.00278  -5.00254  -5.00250  -1.95874  -1.36370
 Alpha  occ. eigenvalues --   -1.36275  -1.36143  -1.26374  -1.26361  -1.26271
 Alpha  occ. eigenvalues --   -1.26250  -1.26155  -1.26148  -1.21059  -1.18632
 Alpha  occ. eigenvalues --   -1.18365  -1.17573  -1.17468  -1.17221  -1.16799
 Alpha  occ. eigenvalues --   -1.09858  -1.08736  -1.04571  -1.04484  -1.03817
 Alpha  occ. eigenvalues --   -1.03270  -1.03007  -1.02649  -1.01323  -1.00797
 Alpha  occ. eigenvalues --   -1.00286  -0.99939  -0.98326  -0.97337  -0.94295
 Alpha  occ. eigenvalues --   -0.92000  -0.89304  -0.86257  -0.82186  -0.80921
 Alpha  occ. eigenvalues --   -0.79352  -0.78922  -0.78332  -0.78273  -0.78033
 Alpha  occ. eigenvalues --   -0.76868  -0.76044  -0.73984  -0.70513  -0.70435
 Alpha  occ. eigenvalues --   -0.70226  -0.69126  -0.68590  -0.66853  -0.66385
 Alpha  occ. eigenvalues --   -0.66366  -0.66271  -0.66269  -0.66199  -0.66141
 Alpha  occ. eigenvalues --   -0.65631  -0.65295  -0.64026  -0.62825  -0.62641
 Alpha  occ. eigenvalues --   -0.61785  -0.60455  -0.59890  -0.59563  -0.59004
 Alpha  occ. eigenvalues --   -0.58716  -0.57739  -0.57479  -0.57035  -0.56702
 Alpha  occ. eigenvalues --   -0.56594  -0.55831  -0.54650  -0.54589  -0.54471
 Alpha  occ. eigenvalues --   -0.54407  -0.54333  -0.54291  -0.54182  -0.52944
 Alpha  occ. eigenvalues --   -0.52699  -0.52493  -0.52073  -0.51972  -0.51846
 Alpha  occ. eigenvalues --   -0.51792  -0.51698  -0.51590  -0.51513  -0.51216
 Alpha  occ. eigenvalues --   -0.50465  -0.50307  -0.50153  -0.50075  -0.50015
 Alpha  occ. eigenvalues --   -0.49921  -0.49864  -0.49841  -0.49715  -0.48815
 Alpha  occ. eigenvalues --   -0.47996  -0.47974  -0.47846  -0.47814  -0.47748
 Alpha  occ. eigenvalues --   -0.47033  -0.46440  -0.46298  -0.45881  -0.45781
 Alpha  occ. eigenvalues --   -0.44964  -0.44167  -0.43738  -0.43164  -0.42925
 Alpha  occ. eigenvalues --   -0.42709  -0.42396  -0.42149  -0.42026  -0.41888
 Alpha  occ. eigenvalues --   -0.41431  -0.41020  -0.40710  -0.40399  -0.40095
 Alpha  occ. eigenvalues --   -0.39772  -0.39581  -0.39409  -0.39110  -0.39007
 Alpha  occ. eigenvalues --   -0.38457  -0.37868  -0.37278  -0.37190  -0.37027
 Alpha  occ. eigenvalues --   -0.36902  -0.36803  -0.36460  -0.35990  -0.35224
 Alpha  occ. eigenvalues --   -0.34586  -0.34367  -0.33127  -0.33019  -0.32762
 Alpha  occ. eigenvalues --   -0.30590  -0.30276  -0.28690  -0.26981  -0.26952
 Alpha  occ. eigenvalues --   -0.26938  -0.26879  -0.26839  -0.26814  -0.26644
 Alpha virt. eigenvalues --   -0.09657  -0.05449  -0.03504  -0.01737  -0.00826
 Alpha virt. eigenvalues --   -0.00034   0.00180   0.02721   0.04014   0.05039
 Alpha virt. eigenvalues --    0.06027   0.08005   0.08598   0.08849   0.09004
 Alpha virt. eigenvalues --    0.10072   0.10332   0.10864   0.10993   0.11063
 Alpha virt. eigenvalues --    0.11783   0.12202   0.12289   0.12390   0.12691
 Alpha virt. eigenvalues --    0.12940   0.13169   0.13264   0.13565   0.14100
 Alpha virt. eigenvalues --    0.14549   0.15125   0.15191   0.16084   0.16131
 Alpha virt. eigenvalues --    0.16226   0.16440   0.16755   0.17151   0.17389
 Alpha virt. eigenvalues --    0.17698   0.17844   0.18053   0.18363   0.18911
 Alpha virt. eigenvalues --    0.19297   0.19391   0.19737   0.20060   0.20629
 Alpha virt. eigenvalues --    0.20813   0.21159   0.21574   0.21821   0.21931
 Alpha virt. eigenvalues --    0.22359   0.22727   0.23256   0.23553   0.23832
 Alpha virt. eigenvalues --    0.24414   0.25153   0.25957   0.26380   0.26665
 Alpha virt. eigenvalues --    0.26887   0.27176   0.27563   0.27690   0.27866
 Alpha virt. eigenvalues --    0.28664   0.28830   0.28952   0.29370   0.30173
 Alpha virt. eigenvalues --    0.30535   0.30863   0.31204   0.31849   0.32077
 Alpha virt. eigenvalues --    0.32406   0.33185   0.34039   0.34362   0.36419
 Alpha virt. eigenvalues --    0.37659   0.37833   0.38317   0.38732   0.39735
 Alpha virt. eigenvalues --    0.40120   0.40387   0.41170   0.41903   0.42477
 Alpha virt. eigenvalues --    0.42985   0.43229   0.43885   0.44012   0.44733
 Alpha virt. eigenvalues --    0.44840   0.45115   0.45406   0.46008   0.46418
 Alpha virt. eigenvalues --    0.46991   0.47360   0.47563   0.47771   0.48261
 Alpha virt. eigenvalues --    0.48375   0.49025   0.49353   0.49430   0.49597
 Alpha virt. eigenvalues --    0.49855   0.50328   0.50444   0.50720   0.50911
 Alpha virt. eigenvalues --    0.51379   0.51710   0.52054   0.52693   0.53021
 Alpha virt. eigenvalues --    0.53423   0.53933   0.54751   0.55157   0.55583
 Alpha virt. eigenvalues --    0.56532   0.57140   0.57429   0.57819   0.58208
 Alpha virt. eigenvalues --    0.58552   0.59131   0.59411   0.59631   0.59873
 Alpha virt. eigenvalues --    0.60057   0.60687   0.61113   0.61577   0.61980
 Alpha virt. eigenvalues --    0.62090   0.62458   0.63038   0.63704   0.64152
 Alpha virt. eigenvalues --    0.64602   0.64991   0.65853   0.65914   0.66265
 Alpha virt. eigenvalues --    0.66836   0.67082   0.67275   0.67745   0.68129
 Alpha virt. eigenvalues --    0.68316   0.68403   0.68697   0.69219   0.69297
 Alpha virt. eigenvalues --    0.69776   0.69823   0.70111   0.70423   0.70739
 Alpha virt. eigenvalues --    0.70932   0.71395   0.71511   0.72136   0.72494
 Alpha virt. eigenvalues --    0.72796   0.73067   0.73233   0.73783   0.74245
 Alpha virt. eigenvalues --    0.74361   0.74467   0.74919   0.75339   0.76034
 Alpha virt. eigenvalues --    0.76291   0.76616   0.77079   0.77535   0.78132
 Alpha virt. eigenvalues --    0.78578   0.79008   0.79607   0.79811   0.80419
 Alpha virt. eigenvalues --    0.80846   0.81548   0.81972   0.82326   0.83519
 Alpha virt. eigenvalues --    0.84542   0.84968   0.85469   0.86217   0.86620
 Alpha virt. eigenvalues --    0.86947   0.87967   0.88301   0.88653   0.89623
 Alpha virt. eigenvalues --    0.90468   0.90947   0.91928   0.92425   0.93067
 Alpha virt. eigenvalues --    0.93622   0.93790   0.94041   0.94202   0.95246
 Alpha virt. eigenvalues --    0.95401   0.95947   0.96926   0.97804   0.98371
 Alpha virt. eigenvalues --    0.98839   0.99641   1.00174   1.00382   1.00897
 Alpha virt. eigenvalues --    1.01049   1.01313   1.02067   1.03967   1.04532
 Alpha virt. eigenvalues --    1.05083   1.06119   1.06295   1.06703   1.06996
 Alpha virt. eigenvalues --    1.07224   1.07677   1.07790   1.08233   1.08948
 Alpha virt. eigenvalues --    1.09297   1.09659   1.09761   1.10474   1.11182
 Alpha virt. eigenvalues --    1.11428   1.12049   1.12550   1.13218   1.13485
 Alpha virt. eigenvalues --    1.13749   1.14645   1.14760   1.15143   1.15505
 Alpha virt. eigenvalues --    1.16047   1.16418   1.16627   1.17128   1.17662
 Alpha virt. eigenvalues --    1.17721   1.18144   1.18670   1.19328   1.20002
 Alpha virt. eigenvalues --    1.20503   1.20711   1.20849   1.21284   1.21759
 Alpha virt. eigenvalues --    1.22059   1.22604   1.23108   1.23761   1.24051
 Alpha virt. eigenvalues --    1.24737   1.24989   1.25285   1.25805   1.26079
 Alpha virt. eigenvalues --    1.26527   1.27167   1.27816   1.28418   1.28957
 Alpha virt. eigenvalues --    1.29419   1.30230   1.30711   1.30852   1.31107
 Alpha virt. eigenvalues --    1.31423   1.31469   1.31981   1.32620   1.33195
 Alpha virt. eigenvalues --    1.33763   1.33989   1.34177   1.34695   1.35119
 Alpha virt. eigenvalues --    1.35247   1.35767   1.36456   1.37148   1.37247
 Alpha virt. eigenvalues --    1.37898   1.39146   1.39459   1.39812   1.40427
 Alpha virt. eigenvalues --    1.41468   1.41824   1.42107   1.42456   1.42660
 Alpha virt. eigenvalues --    1.43194   1.43927   1.43955   1.44219   1.44641
 Alpha virt. eigenvalues --    1.45272   1.45614   1.46604   1.47221   1.47902
 Alpha virt. eigenvalues --    1.48157   1.48441   1.49568   1.51057   1.51330
 Alpha virt. eigenvalues --    1.51895   1.52356   1.53111   1.53913   1.54031
 Alpha virt. eigenvalues --    1.55494   1.55834   1.56707   1.56743   1.57570
 Alpha virt. eigenvalues --    1.57862   1.58439   1.58505   1.58858   1.59174
 Alpha virt. eigenvalues --    1.59620   1.59961   1.60253   1.60727   1.61218
 Alpha virt. eigenvalues --    1.62094   1.62706   1.64041   1.65059   1.65683
 Alpha virt. eigenvalues --    1.66103   1.66630   1.67119   1.67739   1.68108
 Alpha virt. eigenvalues --    1.68606   1.68712   1.70083   1.70511   1.71044
 Alpha virt. eigenvalues --    1.71252   1.72000   1.72552   1.73420   1.73828
 Alpha virt. eigenvalues --    1.73950   1.74056   1.74732   1.74938   1.75839
 Alpha virt. eigenvalues --    1.76098   1.76944   1.77938   1.78100   1.78318
 Alpha virt. eigenvalues --    1.78629   1.79459   1.80180   1.81046   1.81954
 Alpha virt. eigenvalues --    1.82399   1.83526   1.84057   1.84945   1.85981
 Alpha virt. eigenvalues --    1.86361   1.87577   1.88029   1.88197   1.88986
 Alpha virt. eigenvalues --    1.89191   1.89408   1.89771   1.89802   1.89959
 Alpha virt. eigenvalues --    1.90015   1.90090   1.90884   1.91065   1.91530
 Alpha virt. eigenvalues --    1.91967   1.92279   1.92862   1.93032   1.93469
 Alpha virt. eigenvalues --    1.93529   1.94071   1.95206   1.95310   1.95480
 Alpha virt. eigenvalues --    1.95928   1.96501   1.97103   1.97569   1.97737
 Alpha virt. eigenvalues --    1.97957   1.98954   1.99132   1.99524   1.99684
 Alpha virt. eigenvalues --    2.00764   2.00982   2.01374   2.02193   2.02475
 Alpha virt. eigenvalues --    2.03315   2.03738   2.04039   2.04803   2.05617
 Alpha virt. eigenvalues --    2.06306   2.06534   2.07221   2.07826   2.08653
 Alpha virt. eigenvalues --    2.08708   2.09572   2.09896   2.10589   2.11359
 Alpha virt. eigenvalues --    2.11457   2.11783   2.12514   2.12911   2.13609
 Alpha virt. eigenvalues --    2.14121   2.14438   2.14684   2.14987   2.15511
 Alpha virt. eigenvalues --    2.16247   2.17192   2.17993   2.19371   2.20045
 Alpha virt. eigenvalues --    2.20698   2.21732   2.22562   2.22799   2.23246
 Alpha virt. eigenvalues --    2.23419   2.24068   2.24501   2.25254   2.26183
 Alpha virt. eigenvalues --    2.26637   2.28207   2.29329   2.29844   2.30091
 Alpha virt. eigenvalues --    2.30592   2.31135   2.31598   2.32308   2.32946
 Alpha virt. eigenvalues --    2.33306   2.34969   2.35146   2.36414   2.38279
 Alpha virt. eigenvalues --    2.39594   2.41283   2.42987   2.45386   2.48072
 Alpha virt. eigenvalues --    2.48942   2.50556   2.52468   2.55043   2.55796
 Alpha virt. eigenvalues --    2.56277   2.56514   2.57161   2.58083   2.59060
 Alpha virt. eigenvalues --    2.60512   2.60981   2.61445   2.62502   2.62684
 Alpha virt. eigenvalues --    2.62890   2.63039   2.63416   2.63655   2.63951
 Alpha virt. eigenvalues --    2.64638   2.64795   2.64972   2.65626   2.65985
 Alpha virt. eigenvalues --    2.66523   2.66917   2.67037   2.67754   2.68191
 Alpha virt. eigenvalues --    2.68465   2.69332   2.69421   2.69860   2.71138
 Alpha virt. eigenvalues --    2.71576   2.73144   2.73483   2.73712   2.74078
 Alpha virt. eigenvalues --    2.75149   2.75282   2.76085   2.76655   2.76815
 Alpha virt. eigenvalues --    2.77165   2.77951   2.78313   2.78487   2.78852
 Alpha virt. eigenvalues --    2.79235   2.79329   2.79619   2.81212   2.81684
 Alpha virt. eigenvalues --    2.82013   2.82403   2.83031   2.83788   2.84095
 Alpha virt. eigenvalues --    2.85070   2.86064   2.87060   2.87505   2.88495
 Alpha virt. eigenvalues --    2.90100   2.90510   2.91334   2.91665   2.94004
 Alpha virt. eigenvalues --    2.95173   2.95406   2.96069   2.97384   2.97919
 Alpha virt. eigenvalues --    2.98190   2.98236   2.98373   2.98838   2.99169
 Alpha virt. eigenvalues --    2.99373   2.99497   2.99535   3.00200   3.00415
 Alpha virt. eigenvalues --    3.00626   3.00845   3.02369   3.02745   3.03809
 Alpha virt. eigenvalues --    3.03935   3.04004   3.04124   3.04176   3.04224
 Alpha virt. eigenvalues --    3.04321   3.04386   3.04422   3.04450   3.04838
 Alpha virt. eigenvalues --    3.05009   3.05027   3.05424   3.05610   3.05829
 Alpha virt. eigenvalues --    3.06151   3.07014   3.07611   3.07666   3.10710
 Alpha virt. eigenvalues --    3.11261   3.11649   3.12521   3.13753   3.15126
 Alpha virt. eigenvalues --    3.15875   3.15965   3.16032   3.16137   3.16172
 Alpha virt. eigenvalues --    3.16269   3.18061   3.22063   3.24459   3.25850
 Alpha virt. eigenvalues --    3.27172   3.28414   3.29622   3.30856   3.32451
 Alpha virt. eigenvalues --    3.33525   3.37315   3.38481   3.39236   3.39514
 Alpha virt. eigenvalues --    3.39541   3.39905   3.40427   3.40890   3.41071
 Alpha virt. eigenvalues --    3.41860   3.42121   3.43134   3.45091   3.49205
 Alpha virt. eigenvalues --    3.50373   3.51386   3.52067   3.52265   3.52479
 Alpha virt. eigenvalues --    3.52542   3.52983   3.53275   3.56161   3.59247
 Alpha virt. eigenvalues --    3.61581   3.64488   3.66523   3.66782   3.66967
 Alpha virt. eigenvalues --    3.67306   3.68849   3.82280   3.82535   3.82563
 Alpha virt. eigenvalues --    3.83028   3.83199   3.83346   6.46961   6.49328
 Alpha virt. eigenvalues --    6.51603   6.52483   6.54998   7.90090   7.91694
 Alpha virt. eigenvalues --    7.92334   7.95253   8.00147   8.03061   8.04766
 Alpha virt. eigenvalues --    9.72689  13.95643  13.98444  14.00036  24.89999
 Alpha virt. eigenvalues --   85.01480  91.99825  92.07475  92.11740 314.06930
 Alpha virt. eigenvalues --  713.82411
  Beta  occ. eigenvalues --  -88.03493 -88.03465 -88.03153 -24.32821 -24.32756
  Beta  occ. eigenvalues --  -24.32727 -24.32724 -24.32687 -24.32635 -24.32620
  Beta  occ. eigenvalues --  -24.32545 -24.32532 -18.92582 -18.90295 -18.90002
  Beta  occ. eigenvalues --  -18.85266 -18.85240 -18.81434 -18.81377 -18.81328
  Beta  occ. eigenvalues --  -18.81178 -18.81069 -18.81064 -18.81021 -18.80836
  Beta  occ. eigenvalues --  -18.80561 -16.28644 -14.28386 -14.21550 -14.15963
  Beta  occ. eigenvalues --  -14.15564 -10.92014 -10.92009 -10.91971 -10.31517
  Beta  occ. eigenvalues --  -10.31474 -10.31199 -10.24104 -10.23947 -10.23864
  Beta  occ. eigenvalues --  -10.21078 -10.19288 -10.18971 -10.15484 -10.14998
  Beta  occ. eigenvalues --  -10.14828 -10.13070 -10.12402 -10.11106 -10.11089
  Beta  occ. eigenvalues --  -10.08758 -10.07349 -10.07214 -10.06638 -10.06558
  Beta  occ. eigenvalues --  -10.06528  -7.93262  -7.93228  -7.92925  -6.12760
  Beta  occ. eigenvalues --   -6.12727  -6.12723  -6.12702  -6.12684  -6.12648
  Beta  occ. eigenvalues --   -6.12415  -6.12399  -6.12349  -5.00314  -5.00292
  Beta  occ. eigenvalues --   -5.00276  -5.00253  -5.00248  -1.95872  -1.36370
  Beta  occ. eigenvalues --   -1.36275  -1.36143  -1.26374  -1.26360  -1.26271
  Beta  occ. eigenvalues --   -1.26250  -1.26155  -1.26148  -1.20628  -1.18540
  Beta  occ. eigenvalues --   -1.17971  -1.17571  -1.17413  -1.17213  -1.16235
  Beta  occ. eigenvalues --   -1.09733  -1.08609  -1.04570  -1.04483  -1.03816
  Beta  occ. eigenvalues --   -1.03265  -1.03003  -1.02648  -1.01119  -1.00788
  Beta  occ. eigenvalues --   -1.00285  -0.99937  -0.98312  -0.97007  -0.93965
  Beta  occ. eigenvalues --   -0.91812  -0.89011  -0.85618  -0.81952  -0.80779
  Beta  occ. eigenvalues --   -0.79340  -0.78461  -0.78292  -0.78249  -0.78032
  Beta  occ. eigenvalues --   -0.76723  -0.75799  -0.73570  -0.70511  -0.70431
  Beta  occ. eigenvalues --   -0.70226  -0.68796  -0.68234  -0.66508  -0.66384
  Beta  occ. eigenvalues --   -0.66365  -0.66271  -0.66268  -0.66199  -0.66141
  Beta  occ. eigenvalues --   -0.65447  -0.64733  -0.63849  -0.62601  -0.62367
  Beta  occ. eigenvalues --   -0.61580  -0.60136  -0.59773  -0.59523  -0.58997
  Beta  occ. eigenvalues --   -0.58489  -0.57559  -0.57277  -0.56929  -0.56483
  Beta  occ. eigenvalues --   -0.56376  -0.55635  -0.54587  -0.54521  -0.54460
  Beta  occ. eigenvalues --   -0.54351  -0.54321  -0.54290  -0.53666  -0.52693
  Beta  occ. eigenvalues --   -0.52487  -0.52177  -0.52057  -0.51953  -0.51820
  Beta  occ. eigenvalues --   -0.51737  -0.51656  -0.51571  -0.51471  -0.51053
  Beta  occ. eigenvalues --   -0.50363  -0.50155  -0.50129  -0.50065  -0.50007
  Beta  occ. eigenvalues --   -0.49898  -0.49853  -0.49836  -0.49477  -0.48460
  Beta  occ. eigenvalues --   -0.47974  -0.47846  -0.47814  -0.47798  -0.47504
  Beta  occ. eigenvalues --   -0.47025  -0.46334  -0.45977  -0.45810  -0.45527
  Beta  occ. eigenvalues --   -0.44783  -0.44044  -0.43688  -0.43035  -0.42791
  Beta  occ. eigenvalues --   -0.42507  -0.42370  -0.42028  -0.41797  -0.41489
  Beta  occ. eigenvalues --   -0.41282  -0.40909  -0.40189  -0.40065  -0.39941
  Beta  occ. eigenvalues --   -0.39706  -0.39280  -0.39015  -0.38861  -0.38648
  Beta  occ. eigenvalues --   -0.38217  -0.37377  -0.37246  -0.37156  -0.36973
  Beta  occ. eigenvalues --   -0.36854  -0.36792  -0.36323  -0.35729  -0.35171
  Beta  occ. eigenvalues --   -0.34534  -0.34292  -0.33117  -0.32997  -0.32750
  Beta  occ. eigenvalues --   -0.30461  -0.30259  -0.26977  -0.26947  -0.26923
  Beta  occ. eigenvalues --   -0.26877  -0.26835  -0.26803  -0.26642
  Beta virt. eigenvalues --   -0.17010  -0.08309  -0.04422  -0.03424  -0.01536
  Beta virt. eigenvalues --   -0.00490  -0.00004   0.00213   0.02963   0.04847
  Beta virt. eigenvalues --    0.05290   0.06049   0.08126   0.08787   0.08913
  Beta virt. eigenvalues --    0.09519   0.10099   0.10438   0.10895   0.11025
  Beta virt. eigenvalues --    0.11074   0.11791   0.12238   0.12326   0.12412
  Beta virt. eigenvalues --    0.12756   0.12963   0.13296   0.13305   0.13666
  Beta virt. eigenvalues --    0.14153   0.14677   0.15153   0.15260   0.16130
  Beta virt. eigenvalues --    0.16165   0.16227   0.16450   0.16773   0.17202
  Beta virt. eigenvalues --    0.17408   0.17712   0.17887   0.18072   0.18387
  Beta virt. eigenvalues --    0.18926   0.19300   0.19437   0.19750   0.20117
  Beta virt. eigenvalues --    0.20666   0.20812   0.21267   0.21569   0.21846
  Beta virt. eigenvalues --    0.21966   0.22366   0.22760   0.23333   0.23626
  Beta virt. eigenvalues --    0.23902   0.24518   0.25212   0.26052   0.26415
  Beta virt. eigenvalues --    0.26731   0.26912   0.27185   0.27569   0.27695
  Beta virt. eigenvalues --    0.27881   0.28714   0.28834   0.28958   0.29376
  Beta virt. eigenvalues --    0.30163   0.30548   0.30833   0.31208   0.31832
  Beta virt. eigenvalues --    0.32139   0.32379   0.33283   0.34053   0.34359
  Beta virt. eigenvalues --    0.36594   0.37720   0.37899   0.38368   0.38750
  Beta virt. eigenvalues --    0.39849   0.40155   0.40399   0.41222   0.41934
  Beta virt. eigenvalues --    0.42520   0.43012   0.43322   0.44006   0.44055
  Beta virt. eigenvalues --    0.44787   0.44893   0.45182   0.45482   0.46081
  Beta virt. eigenvalues --    0.46502   0.47171   0.47399   0.47633   0.47834
  Beta virt. eigenvalues --    0.48317   0.48423   0.49026   0.49354   0.49457
  Beta virt. eigenvalues --    0.49642   0.49946   0.50362   0.50484   0.50769
  Beta virt. eigenvalues --    0.50924   0.51414   0.51776   0.52047   0.52774
  Beta virt. eigenvalues --    0.53073   0.53470   0.54097   0.54873   0.55131
  Beta virt. eigenvalues --    0.55635   0.56627   0.57149   0.57450   0.57950
  Beta virt. eigenvalues --    0.58293   0.58564   0.59151   0.59455   0.59667
  Beta virt. eigenvalues --    0.59869   0.60140   0.60671   0.61177   0.61583
  Beta virt. eigenvalues --    0.61979   0.62255   0.62560   0.63070   0.63686
  Beta virt. eigenvalues --    0.64291   0.64674   0.65001   0.65807   0.65956
  Beta virt. eigenvalues --    0.66276   0.66959   0.67083   0.67239   0.67759
  Beta virt. eigenvalues --    0.68121   0.68313   0.68462   0.68722   0.69181
  Beta virt. eigenvalues --    0.69296   0.69769   0.69810   0.70128   0.70414
  Beta virt. eigenvalues --    0.70770   0.70943   0.71365   0.71525   0.72211
  Beta virt. eigenvalues --    0.72536   0.72773   0.73063   0.73238   0.73775
  Beta virt. eigenvalues --    0.74200   0.74374   0.74492   0.74920   0.75363
  Beta virt. eigenvalues --    0.76129   0.76380   0.76672   0.77142   0.77536
  Beta virt. eigenvalues --    0.78137   0.78565   0.79014   0.79630   0.79824
  Beta virt. eigenvalues --    0.80450   0.80831   0.81537   0.82028   0.82378
  Beta virt. eigenvalues --    0.83486   0.84540   0.85019   0.85507   0.86312
  Beta virt. eigenvalues --    0.86647   0.87005   0.88038   0.88351   0.88680
  Beta virt. eigenvalues --    0.89663   0.90544   0.91009   0.91983   0.92555
  Beta virt. eigenvalues --    0.93165   0.93691   0.93940   0.94109   0.94281
  Beta virt. eigenvalues --    0.95252   0.95448   0.96028   0.97031   0.97817
  Beta virt. eigenvalues --    0.98400   0.98869   0.99777   1.00210   1.00525
  Beta virt. eigenvalues --    1.00982   1.01059   1.01548   1.02175   1.04029
  Beta virt. eigenvalues --    1.04544   1.05116   1.06186   1.06402   1.06743
  Beta virt. eigenvalues --    1.07127   1.07262   1.07731   1.07837   1.08291
  Beta virt. eigenvalues --    1.08975   1.09329   1.09717   1.09790   1.10525
  Beta virt. eigenvalues --    1.11234   1.11468   1.12064   1.12577   1.13300
  Beta virt. eigenvalues --    1.13613   1.13771   1.14656   1.14764   1.15191
  Beta virt. eigenvalues --    1.15529   1.16118   1.16434   1.16655   1.17147
  Beta virt. eigenvalues --    1.17683   1.17752   1.18156   1.18690   1.19337
  Beta virt. eigenvalues --    1.20021   1.20525   1.20766   1.20906   1.21373
  Beta virt. eigenvalues --    1.21838   1.22130   1.22808   1.23131   1.23797
  Beta virt. eigenvalues --    1.24090   1.24753   1.25086   1.25359   1.25874
  Beta virt. eigenvalues --    1.26124   1.26609   1.27257   1.27870   1.28452
  Beta virt. eigenvalues --    1.28989   1.29446   1.30282   1.30736   1.30897
  Beta virt. eigenvalues --    1.31123   1.31445   1.31489   1.32010   1.32671
  Beta virt. eigenvalues --    1.33236   1.33789   1.34020   1.34191   1.34715
  Beta virt. eigenvalues --    1.35112   1.35353   1.35782   1.36489   1.37239
  Beta virt. eigenvalues --    1.37311   1.37973   1.39259   1.39464   1.39879
  Beta virt. eigenvalues --    1.40468   1.41463   1.41833   1.42130   1.42459
  Beta virt. eigenvalues --    1.42664   1.43203   1.43926   1.43966   1.44218
  Beta virt. eigenvalues --    1.44649   1.45284   1.45631   1.46634   1.47285
  Beta virt. eigenvalues --    1.48108   1.48228   1.48506   1.49571   1.51141
  Beta virt. eigenvalues --    1.51358   1.51927   1.52438   1.53205   1.53929
  Beta virt. eigenvalues --    1.54156   1.55509   1.55953   1.56729   1.56822
  Beta virt. eigenvalues --    1.57627   1.57890   1.58433   1.58512   1.58857
  Beta virt. eigenvalues --    1.59241   1.59627   1.59950   1.60292   1.60776
  Beta virt. eigenvalues --    1.61213   1.62148   1.62786   1.64074   1.65019
  Beta virt. eigenvalues --    1.65728   1.66253   1.66628   1.67128   1.67677
  Beta virt. eigenvalues --    1.68063   1.68576   1.68791   1.70126   1.70508
  Beta virt. eigenvalues --    1.71093   1.71296   1.71977   1.72602   1.73443
  Beta virt. eigenvalues --    1.73848   1.73964   1.74049   1.74761   1.74964
  Beta virt. eigenvalues --    1.75915   1.76268   1.76988   1.77988   1.78072
  Beta virt. eigenvalues --    1.78243   1.78627   1.79473   1.80231   1.80999
  Beta virt. eigenvalues --    1.82058   1.82487   1.83740   1.84069   1.85214
  Beta virt. eigenvalues --    1.86018   1.86383   1.87616   1.88129   1.88246
  Beta virt. eigenvalues --    1.89019   1.89179   1.89416   1.89778   1.89793
  Beta virt. eigenvalues --    1.89959   1.90022   1.90115   1.90856   1.91054
  Beta virt. eigenvalues --    1.91667   1.92052   1.92359   1.92852   1.93075
  Beta virt. eigenvalues --    1.93487   1.93620   1.94116   1.95222   1.95351
  Beta virt. eigenvalues --    1.95560   1.95956   1.96513   1.97184   1.97565
  Beta virt. eigenvalues --    1.97876   1.97946   1.98986   1.99134   1.99597
  Beta virt. eigenvalues --    1.99669   2.00793   2.00965   2.01365   2.02171
  Beta virt. eigenvalues --    2.02477   2.03302   2.03715   2.04063   2.04883
  Beta virt. eigenvalues --    2.05606   2.06264   2.06619   2.07267   2.07964
  Beta virt. eigenvalues --    2.08729   2.08772   2.09522   2.10095   2.10554
  Beta virt. eigenvalues --    2.11433   2.11543   2.11775   2.12530   2.12937
  Beta virt. eigenvalues --    2.13616   2.14134   2.14435   2.14685   2.15267
  Beta virt. eigenvalues --    2.15454   2.16252   2.17364   2.18010   2.19354
  Beta virt. eigenvalues --    2.20255   2.20704   2.21723   2.22589   2.22840
  Beta virt. eigenvalues --    2.23281   2.23390   2.24068   2.24536   2.25255
  Beta virt. eigenvalues --    2.26152   2.26629   2.28357   2.29422   2.29825
  Beta virt. eigenvalues --    2.30076   2.30615   2.31173   2.31625   2.32322
  Beta virt. eigenvalues --    2.33095   2.33530   2.35149   2.35392   2.36557
  Beta virt. eigenvalues --    2.38216   2.39608   2.41102   2.42871   2.44898
  Beta virt. eigenvalues --    2.47375   2.48912   2.50471   2.52324   2.55040
  Beta virt. eigenvalues --    2.55790   2.56403   2.56525   2.57155   2.58089
  Beta virt. eigenvalues --    2.59054   2.60566   2.61050   2.61508   2.62518
  Beta virt. eigenvalues --    2.62673   2.62879   2.63040   2.63382   2.63615
  Beta virt. eigenvalues --    2.63960   2.64699   2.64731   2.64998   2.65558
  Beta virt. eigenvalues --    2.65988   2.66543   2.66809   2.67052   2.67672
  Beta virt. eigenvalues --    2.68222   2.68458   2.69355   2.69409   2.69842
  Beta virt. eigenvalues --    2.71167   2.71592   2.73154   2.73482   2.73736
  Beta virt. eigenvalues --    2.74118   2.74955   2.75249   2.76018   2.76663
  Beta virt. eigenvalues --    2.76979   2.77183   2.78012   2.78325   2.78503
  Beta virt. eigenvalues --    2.78924   2.79248   2.79376   2.79657   2.81169
  Beta virt. eigenvalues --    2.81679   2.82002   2.82406   2.83020   2.83757
  Beta virt. eigenvalues --    2.84098   2.85043   2.86044   2.87054   2.87290
  Beta virt. eigenvalues --    2.88531   2.90074   2.90270   2.91312   2.91688
  Beta virt. eigenvalues --    2.93716   2.95130   2.95373   2.96022   2.97387
  Beta virt. eigenvalues --    2.97906   2.98099   2.98192   2.98298   2.98793
  Beta virt. eigenvalues --    2.99113   2.99373   2.99497   2.99535   3.00148
  Beta virt. eigenvalues --    3.00304   3.00592   3.00837   3.02354   3.02745
  Beta virt. eigenvalues --    3.03809   3.03935   3.04004   3.04124   3.04176
  Beta virt. eigenvalues --    3.04228   3.04321   3.04386   3.04425   3.04463
  Beta virt. eigenvalues --    3.04838   3.05009   3.05027   3.05394   3.05611
  Beta virt. eigenvalues --    3.05825   3.06154   3.07011   3.07607   3.07667
  Beta virt. eigenvalues --    3.10275   3.11129   3.11587   3.12489   3.13743
  Beta virt. eigenvalues --    3.15066   3.15875   3.15965   3.16031   3.16137
  Beta virt. eigenvalues --    3.16172   3.16266   3.17872   3.22073   3.24459
  Beta virt. eigenvalues --    3.25845   3.27167   3.28412   3.29604   3.30097
  Beta virt. eigenvalues --    3.32348   3.33420   3.37149   3.38470   3.39235
  Beta virt. eigenvalues --    3.39509   3.39534   3.39902   3.40374   3.40818
  Beta virt. eigenvalues --    3.41032   3.41803   3.42099   3.42784   3.44804
  Beta virt. eigenvalues --    3.49101   3.49675   3.51273   3.52066   3.52265
  Beta virt. eigenvalues --    3.52477   3.52539   3.52982   3.53269   3.55977
  Beta virt. eigenvalues --    3.59197   3.61410   3.64188   3.66428   3.66776
  Beta virt. eigenvalues --    3.66965   3.67305   3.68655   3.82280   3.82535
  Beta virt. eigenvalues --    3.82563   3.83029   3.83199   3.83346   6.46960
  Beta virt. eigenvalues --    6.49331   6.51603   6.52483   6.55000   7.90089
  Beta virt. eigenvalues --    7.91698   7.92339   7.95252   8.00151   8.03061
  Beta virt. eigenvalues --    8.04769   9.72689  13.95645  13.98444  14.00036
  Beta virt. eigenvalues --   24.90017  85.01477  91.99825  92.07474  92.11738
  Beta virt. eigenvalues --  314.06931 713.82414
          Condensed to atoms (all electrons):
          Atomic-Atomic Spin Densities.
 Mulliken charges and spin densities:
               1          2
     1  C   -0.023615   0.001056
     2  C    0.026624   0.001288
     3  C    0.007031   0.000164
     4  C    0.021766   0.002256
     5  C    0.004536  -0.001004
     6  C    0.022115   0.002601
     7  C    0.002019   0.404251
     8  C    0.225955  -0.024736
     9  C    0.220683  -0.035459
    10  H    0.011072  -0.000193
    11  H    0.019619  -0.000002
    12  H    0.021630  -0.000144
    13  H    0.019025   0.000072
    14  H    0.011645  -0.000090
    15  O   -0.192089   0.047577
    16  O   -0.196530   0.031962
    17  O   -0.250320   0.015227
    18  O   -0.240601   0.010920
    19  C    0.156935   0.000066
    20  C    0.168406  -0.000378
    21  H    0.068212   0.000070
    22  H    0.056471   0.001098
    23  H    0.071396   0.000921
    24  H    0.069061   0.000021
    25  H    0.062483   0.000961
    26  H    0.052433   0.000865
    27  O   -0.478359   0.001679
    28  O   -0.469228   0.000014
    29  O   -0.481445   0.001837
    30  S    0.852465  -0.000092
    31  S    0.854802   0.000029
    32  S    0.843772   0.000009
    33  O   -0.473965   0.000648
    34  O   -0.456787   0.000124
    35  O   -0.461024   0.000212
    36  O   -0.454397   0.000436
    37  O   -0.474095   0.000063
    38  O   -0.454840  -0.000006
    39  C    0.399600  -0.000002
    40  C    0.399687   0.000165
    41  C    0.405814  -0.000017
    42  F   -0.139729   0.000000
    43  F   -0.140704   0.000001
    44  F   -0.139581   0.000000
    45  F   -0.137731   0.000020
    46  F   -0.137439   0.000001
    47  F   -0.140600   0.000005
    48  F   -0.138874  -0.000000
    49  F   -0.133972   0.000002
    50  F   -0.138358   0.000006
    51  C    0.252529   0.010476
    52  H    0.084668   0.001823
    53  C   -0.131410  -0.002853
    54  C   -0.140441   0.002950
    55  C   -0.148564   0.006195
    56  C    0.148741   0.131647
    57  C    0.074579   0.083199
    58  C    0.100177   0.010797
    59  H    0.035887  -0.008732
    60  H    0.100259  -0.006330
    61  H    0.090599  -0.001215
    62  N    0.161945   0.003729
    63  N    0.147318  -0.001061
    64  N   -0.108129   0.227940
    65  N    0.009756   0.037772
    66  C    0.093231  -0.086470
    67  H    0.112242   0.023656
    68  O   -0.201438   0.102731
    69  Yb   0.597078  -0.000757
 Sum of Mulliken charges =  -0.00000   1.00000
 Mulliken charges and spin densities with hydrogens summed into heavy atoms:
               1          2
     1  C   -0.023615   0.001056
     2  C    0.037696   0.001095
     3  C    0.026651   0.000162
     4  C    0.043396   0.002112
     5  C    0.023560  -0.000931
     6  C    0.033760   0.002511
     7  C    0.002019   0.404251
     8  C    0.225955  -0.024736
     9  C    0.220683  -0.035459
    15  O   -0.192089   0.047577
    16  O   -0.196530   0.031962
    17  O   -0.250320   0.015227
    18  O   -0.240601   0.010920
    19  C    0.353014   0.002154
    20  C    0.352383   0.001469
    27  O   -0.478359   0.001679
    28  O   -0.469228   0.000014
    29  O   -0.481445   0.001837
    30  S    0.852465  -0.000092
    31  S    0.854802   0.000029
    32  S    0.843772   0.000009
    33  O   -0.473965   0.000648
    34  O   -0.456787   0.000124
    35  O   -0.461024   0.000212
    36  O   -0.454397   0.000436
    37  O   -0.474095   0.000063
    38  O   -0.454840  -0.000006
    39  C    0.399600  -0.000002
    40  C    0.399687   0.000165
    41  C    0.405814  -0.000017
    42  F   -0.139729   0.000000
    43  F   -0.140704   0.000001
    44  F   -0.139581   0.000000
    45  F   -0.137731   0.000020
    46  F   -0.137439   0.000001
    47  F   -0.140600   0.000005
    48  F   -0.138874  -0.000000
    49  F   -0.133972   0.000002
    50  F   -0.138358   0.000006
    51  C    0.337197   0.012299
    53  C   -0.131410  -0.002853
    54  C   -0.140441   0.002950
    55  C   -0.148564   0.006195
    56  C    0.184628   0.122915
    57  C    0.174838   0.076869
    58  C    0.190776   0.009582
    62  N    0.161945   0.003729
    63  N    0.147318  -0.001061
    64  N   -0.108129   0.227940
    65  N    0.009756   0.037772
    66  C    0.205473  -0.062813
    68  O   -0.201438   0.102731
    69  Yb   0.597078  -0.000757
 APT charges:
               1
     1  C   -1.307273
     2  C   -0.050226
     3  C   -0.474017
     4  C   -0.716700
     5  C   -0.550194
     6  C   -0.177580
     7  C   -0.281768
     8  C   -0.154841
     9  C   -0.196269
    10  H   -0.294504
    11  H    0.850094
    12  H    1.681508
    13  H    1.325089
    14  H    0.182473
    15  O   -0.369879
    16  O   -0.338649
    17  O    0.079546
    18  O    0.170292
    19  C   -0.673827
    20  C   -0.719642
    21  H    0.803170
    22  H    0.278282
    23  H    0.012480
    24  H    0.950185
    25  H    0.148842
    26  H    0.130610
    27  O   -0.680652
    28  O   -0.599309
    29  O   -0.729250
    30  S    0.209647
    31  S    0.240504
    32  S    0.150691
    33  O   -0.299004
    34  O   -0.015534
    35  O   -0.369604
    36  O   -0.054175
    37  O   -0.568843
    38  O    0.119009
    39  C   -0.739385
    40  C   -0.732153
    41  C   -0.664742
    42  F    0.555246
    43  F    0.029031
    44  F    0.521638
    45  F    0.648683
    46  F    0.120130
    47  F    0.324023
    48  F    0.215647
    49  F    0.091920
    50  F    0.640698
    51  C   -0.273956
    52  H    0.166744
    53  C   -1.241807
    54  C   -2.594676
    55  C   -2.150470
    56  C   -0.495870
    57  C   -0.701846
    58  C   -0.205645
    59  H    0.112508
    60  H    0.805959
    61  H    0.501291
    62  N    3.652258
    63  N    2.622156
    64  N   -0.020064
    65  N    0.226445
    66  C   -0.220610
    67  H    0.469058
    68  O    0.081761
    69  Yb   0.545344
 Sum of APT charges =  -0.00000
 APT charges with hydrogens summed into heavy atoms:
               1
     1  C   -1.307273
     2  C   -0.344730
     3  C    0.376077
     4  C    0.964808
     5  C    0.774895
     6  C    0.004893
     7  C   -0.281768
     8  C   -0.154841
     9  C   -0.196269
    15  O   -0.369879
    16  O   -0.338649
    17  O    0.079546
    18  O    0.170292
    19  C    0.420105
    20  C    0.509996
    27  O   -0.680652
    28  O   -0.599309
    29  O   -0.729250
    30  S    0.209647
    31  S    0.240504
    32  S    0.150691
    33  O   -0.299004
    34  O   -0.015534
    35  O   -0.369604
    36  O   -0.054175
    37  O   -0.568843
    38  O    0.119009
    39  C   -0.739385
    40  C   -0.732153
    41  C   -0.664742
    42  F    0.555246
    43  F    0.029031
    44  F    0.521638
    45  F    0.648683
    46  F    0.120130
    47  F    0.324023
    48  F    0.215647
    49  F    0.091920
    50  F    0.640698
    51  C   -0.107212
    53  C   -1.241807
    54  C   -2.594676
    55  C   -2.150470
    56  C   -0.383362
    57  C    0.104114
    58  C    0.295646
    62  N    3.652258
    63  N    2.622156
    64  N   -0.020064
    65  N    0.226445
    66  C    0.248448
    68  O    0.081761
    69  Yb   0.545344
 Electronic spatial extent (au):  <R**2>=          34358.3289
 Charge=             -0.0000 electrons
 Dipole moment (field-independent basis, Debye):
    X=             14.3963    Y=             -4.8394    Z=              5.1761  Tot=             16.0457
 Quadrupole moment (field-independent basis, Debye-Ang):
   XX=           -321.2843   YY=           -344.4435   ZZ=           -350.7514
   XY=              8.2405   XZ=              2.7531   YZ=             -9.2631
 Traceless Quadrupole moment (field-independent basis, Debye-Ang):
   XX=             17.5421   YY=             -5.6171   ZZ=            -11.9250
   XY=              8.2405   XZ=              2.7531   YZ=             -9.2631
 Octapole moment (field-independent basis, Debye-Ang**2):
  XXX=           -251.2982  YYY=             67.4938  ZZZ=           -102.6170  XYY=            -92.9558
  XXY=            191.4615  XXZ=           -117.1314  XZZ=            -74.8645  YZZ=            -42.2917
  YYZ=             69.0428  XYZ=             50.6967
 Hexadecapole moment (field-independent basis, Debye-Ang**3):
 XXXX=         -22648.3625 YYYY=         -10111.1947 ZZZZ=          -8288.7891 XXXY=           1415.1892
 XXXZ=           -685.4054 YYYX=             78.3109 YYYZ=           -139.6595 ZZZX=           -393.1074
 ZZZY=             24.6366 XXYY=          -5811.7556 XXZZ=          -5745.8843 YYZZ=          -3004.0880
 XXYZ=             61.1238 YYXZ=             65.5127 ZZXY=            128.9956
 N-N= 1.145653504050D+04 E-N=-3.568856704291D+04  KE= 4.921988073045D+03
  Exact polarizability:   0.000   0.000   0.000   0.000   0.000   0.000
 Approx polarizability: 502.913  47.207 409.176 -15.004  13.381 523.978
                          Isotropic Fermi Contact Couplings
        Atom                 a.u.       MegaHertz       Gauss      10(-4) cm-1
     1  C(13)              0.00176       1.97622       0.70516       0.65920
     2  C(13)              0.00001       0.00864       0.00308       0.00288
     3  C(13)              0.00000       0.00054       0.00019       0.00018
     4  C(13)              0.00035       0.39076       0.13943       0.13034
     5  C(13)             -0.00015      -0.17300      -0.06173      -0.05771
     6  C(13)              0.00054       0.61057       0.21787       0.20366
     7  C(13)              0.11349     127.58975      45.52719      42.55936
     8  C(13)             -0.01241     -13.94781      -4.97693      -4.65249
     9  C(13)             -0.02582     -29.02156     -10.35561      -9.68055
    10  H(1)               0.00001       0.03230       0.01153       0.01077
    11  H(1)               0.00000       0.02040       0.00728       0.00680
    12  H(1)              -0.00004      -0.15709      -0.05605      -0.05240
    13  H(1)               0.00002       0.09398       0.03353       0.03135
    14  H(1)               0.00001       0.05755       0.02054       0.01920
    15  O(17)              0.00327      -1.98345      -0.70774      -0.66161
    16  O(17)              0.00150      -0.90778      -0.32392      -0.30280
    17  O(17)              0.00846      -5.12932      -1.83027      -1.71096
    18  O(17)             -0.00102       0.61644       0.21996       0.20562
    19  C(13)             -0.00035      -0.39656      -0.14150      -0.13228
    20  C(13)             -0.00081      -0.91265      -0.32566      -0.30443
    21  H(1)               0.00005       0.20583       0.07344       0.06866
    22  H(1)               0.00049       2.20961       0.78844       0.73705
    23  H(1)               0.00039       1.75092       0.62477       0.58404
    24  H(1)               0.00001       0.03517       0.01255       0.01173
    25  H(1)               0.00045       2.02610       0.72296       0.67583
    26  H(1)               0.00054       2.40169       0.85698       0.80112
    27  O(17)              0.00307      -1.85850      -0.66316      -0.61993
    28  O(17)             -0.00001       0.00627       0.00224       0.00209
    29  O(17)              0.00140      -0.84641      -0.30202      -0.28233
    30  S(33)             -0.00013      -0.04541      -0.01620      -0.01515
    31  S(33)             -0.00013      -0.04554      -0.01625      -0.01519
    32  S(33)              0.00001       0.00197       0.00070       0.00066
    33  O(17)              0.00015      -0.08901      -0.03176      -0.02969
    34  O(17)             -0.00015       0.09173       0.03273       0.03060
    35  O(17)             -0.00007       0.03969       0.01416       0.01324
    36  O(17)             -0.00022       0.13151       0.04692       0.04387
    37  O(17)              0.00000      -0.00264      -0.00094      -0.00088
    38  O(17)              0.00003      -0.01571      -0.00560      -0.00524
    39  C(13)             -0.00000      -0.00054      -0.00019      -0.00018
    40  C(13)              0.00032       0.35989       0.12842       0.12005
    41  C(13)             -0.00004      -0.04867      -0.01737      -0.01624
    42  F(19)             -0.00000      -0.00034      -0.00012      -0.00011
    43  F(19)              0.00000       0.00711       0.00254       0.00237
    44  F(19)              0.00000       0.00106       0.00038       0.00035
    45  F(19)              0.00000       0.01975       0.00705       0.00659
    46  F(19)             -0.00001      -0.05362      -0.01913      -0.01788
    47  F(19)             -0.00000      -0.01939      -0.00692      -0.00647
    48  F(19)             -0.00000      -0.01778      -0.00634      -0.00593
    49  F(19)             -0.00000      -0.00884      -0.00315      -0.00295
    50  F(19)              0.00001       0.03948       0.01409       0.01317
    51  C(13)             -0.00024      -0.27404      -0.09778      -0.09141
    52  H(1)               0.00077       3.45879       1.23418       1.15373
    53  C(13)              0.00493       5.53776       1.97601       1.84720
    54  C(13)              0.00813       9.14230       3.26220       3.04954
    55  C(13)              0.00511       5.74189       2.04885       1.91529
    56  C(13)              0.02846      31.99241      11.41569      10.67152
    57  C(13)              0.01587      17.83944       6.36556       5.95060
    58  C(13)             -0.00398      -4.47648      -1.59732      -1.49319
    59  H(1)              -0.00231     -10.32338      -3.68364      -3.44351
    60  H(1)              -0.00189      -8.45282      -3.01618      -2.81956
    61  H(1)              -0.00027      -1.20315      -0.42931      -0.40133
    62  N(14)              0.00065       0.21138       0.07543       0.07051
    63  N(14)              0.00094       0.30525       0.10892       0.10182
    64  N(14)              0.04276      13.81460       4.92939       4.60806
    65  N(14)             -0.00591      -1.91028      -0.68163      -0.63720
    66  C(13)             -0.03847     -43.24477     -15.43081     -14.42490
    67  H(1)               0.00958      42.83918      15.28608      14.28961
    68  O(17)              0.00830      -5.03248      -1.79571      -1.67866
    69  Yb(171             0.00038       0.29738       0.10611       0.09920
 --------------------------------------------------------
       Center         ----  Spin Dipole Couplings  ----
                      3XX-RR        3YY-RR        3ZZ-RR
 --------------------------------------------------------
     1   Atom        0.005525     -0.002160     -0.003365
     2   Atom        0.002765     -0.001321     -0.001444
     3   Atom        0.001529     -0.000800     -0.000729
     4   Atom        0.000241      0.001071     -0.001311
     5   Atom        0.000992     -0.000640     -0.000352
     6   Atom        0.002057      0.000188     -0.002245
     7   Atom       -0.241119      0.368708     -0.127589
     8   Atom       -0.008840     -0.011623      0.020463
     9   Atom        0.002379     -0.004863      0.002484
    10   Atom        0.002065     -0.002276      0.000211
    11   Atom        0.000559     -0.000507     -0.000053
    12   Atom        0.000621     -0.000206     -0.000414
    13   Atom        0.000520     -0.000129     -0.000391
    14   Atom        0.000563     -0.000168     -0.000395
    15   Atom       -0.088702      0.171413     -0.082711
    16   Atom       -0.030378     -0.044410      0.074788
    17   Atom       -0.026071     -0.029499      0.055570
    18   Atom       -0.024606      0.036818     -0.012213
    19   Atom       -0.002394      0.000436      0.001959
    20   Atom       -0.002166      0.000360      0.001806
    21   Atom       -0.001245      0.001482     -0.000237
    22   Atom       -0.001203      0.000712      0.000491
    23   Atom       -0.000284      0.001300     -0.001015
    24   Atom       -0.000997     -0.001002      0.001999
    25   Atom       -0.000921     -0.001380      0.002300
    26   Atom       -0.000999     -0.000855      0.001854
    27   Atom        0.009086     -0.004120     -0.004966
    28   Atom        0.000631      0.000069     -0.000700
    29   Atom        0.009474     -0.002676     -0.006799
    30   Atom       -0.000300      0.000403     -0.000103
    31   Atom        0.001001     -0.000798     -0.000202
    32   Atom        0.000723     -0.000363     -0.000360
    33   Atom       -0.000594      0.001734     -0.001139
    34   Atom       -0.000855     -0.000301      0.001156
    35   Atom        0.001178     -0.000968     -0.000211
    36   Atom        0.000272      0.000919     -0.001191
    37   Atom        0.001386     -0.000819     -0.000566
[...]
    42   Atom       -0.000272     -0.000211      0.000092
    43   Atom       -0.000327     -0.000040      0.000019
    44   Atom       -0.000326     -0.000116      0.000089
    45   Atom        0.000499      0.000501      0.000216
    46   Atom        0.000212      0.000317      0.000042
    47   Atom        0.000732      0.000362      0.000187
    48   Atom       -0.000237      0.000119     -0.000379
    49   Atom       -0.000355      0.000165     -0.000246
    50   Atom       -0.000206      0.000169     -0.000313
    51   Atom       -0.002844      0.002899     -0.024678
    52   Atom        0.002868     -0.000700      0.001654
    53   Atom        0.009172     -0.003873     -0.014652
    54   Atom        0.003497      0.005170      0.000606
    55   Atom       -0.001705     -0.006463      0.002703
    56   Atom       -0.151473      0.003747     -0.004955
    57   Atom       -0.106311      0.018986     -0.056438
    58   Atom       -0.006401      0.004691     -0.017793
    59   Atom        0.002108      0.019033      0.008290
    60   Atom       -0.003302     -0.014265     -0.001687
    61   Atom        0.002996     -0.005729     -0.002902
    62   Atom       -0.002109      0.003715      0.004912
    63   Atom       -0.004926     -0.003997      0.005518
    64   Atom       -0.339854      0.015637     -0.046932
    65   Atom       -0.036075     -0.023306      0.046959
    66   Atom       -0.005128      0.009740      0.000643
    67   Atom        0.000256     -0.002612      0.004506
    68   Atom       -0.044765      0.004405     -0.025570
    69   Atom       -0.001937      0.001437      0.000707
 --------------------------------------------------------


 ---------------------------------------------------------------------------------
              Anisotropic Spin Dipole Couplings in Principal Axis System
 ---------------------------------------------------------------------------------

       Atom             a.u.   MegaHertz   Gauss  10(-4) cm-1        Axes

              Baa    -0.0075    -1.003    -0.358    -0.335 -0.6999  0.7137 -0.0279
     1 C(13)  Bbb    -0.0030    -0.409    -0.146    -0.136  0.2311  0.2633  0.9366
              Bcc     0.0105     1.412     0.504     0.471  0.6758  0.6491 -0.3492
 
              Baa    -0.0030    -0.404    -0.144    -0.135  0.3619  0.4224  0.8310
     2 C(13)  Bbb     0.0004     0.055     0.020     0.018  0.5557  0.6180 -0.5561
              Bcc     0.0026     0.349     0.124     0.116  0.7485 -0.6631  0.0111
 
              Baa    -0.0021    -0.276    -0.099    -0.092 -0.3176  0.9044 -0.2850
     3 C(13)  Bbb    -0.0001    -0.008    -0.003    -0.003  0.2383  0.3671  0.8992
              Bcc     0.0021     0.284     0.101     0.095  0.9178  0.2177 -0.3321
 
              Baa    -0.0036    -0.480    -0.171    -0.160  0.1168  0.3425  0.9322
     4 C(13)  Bbb    -0.0021    -0.277    -0.099    -0.092  0.9120  0.3347 -0.2372
              Bcc     0.0056     0.757     0.270     0.252 -0.3932  0.8779 -0.2733
 
              Baa    -0.0030    -0.406    -0.145    -0.135 -0.4618  0.8497 -0.2544
     5 C(13)  Bbb     0.0005     0.073     0.026     0.024  0.0443  0.3086  0.9502
              Bcc     0.0025     0.333     0.119     0.111  0.8859  0.4276 -0.1801
 
              Baa    -0.0037    -0.501    -0.179    -0.167 -0.1657  0.1972  0.9663
     6 C(13)  Bbb    -0.0007    -0.088    -0.031    -0.029  0.7710  0.6368  0.0023
              Bcc     0.0044     0.589     0.210     0.197 -0.6149  0.7454 -0.2576
 
              Baa    -0.0876   -11.752    -4.193    -3.920  0.9539  0.0018 -0.3001
     7 C(13)  Bbb    -0.0829   -11.126    -3.970    -3.711  0.2747  0.3974  0.8756
              Bcc     0.1705    22.878     8.163     7.631 -0.1209  0.9177 -0.3785
 
              Baa    -0.0050    -0.665    -0.237    -0.222  0.9385  0.1524  0.3097
     8 C(13)  Bbb    -0.0010    -0.140    -0.050    -0.047 -0.2099  0.9643  0.1615
              Bcc     0.0060     0.805     0.287     0.269 -0.2740 -0.2166  0.9370
 
              Baa    -0.0049    -0.655    -0.234    -0.218  0.7826 -0.5941 -0.1861
     9 C(13)  Bbb    -0.0007    -0.093    -0.033    -0.031 -0.3385 -0.6569  0.6737
              Bcc     0.0056     0.748     0.267     0.249  0.5225  0.4642  0.7152
 
              Baa    -0.0014    -0.761    -0.271    -0.254 -0.6262  0.7116 -0.3187
    10 H(1)   Bbb    -0.0011    -0.571    -0.204    -0.191  0.4088  0.6477  0.6430
              Bcc     0.0025     1.332     0.475     0.444 -0.6639 -0.2723  0.6964
 
              Baa    -0.0005    -0.271    -0.097    -0.090 -0.4248  0.9049 -0.0250
    11 H(1)   Bbb    -0.0003    -0.163    -0.058    -0.054  0.4967  0.2561  0.8293
              Bcc     0.0008     0.434     0.155     0.145  0.7569  0.3399 -0.5582
 
              Baa    -0.0007    -0.372    -0.133    -0.124  0.1416  0.3589  0.9226
    12 H(1)   Bbb    -0.0003    -0.168    -0.060    -0.056 -0.4751  0.8422 -0.2547
              Bcc     0.0010     0.540     0.193     0.180  0.8685  0.4023 -0.2898
 
              Baa    -0.0005    -0.245    -0.087    -0.082 -0.5417  0.7755 -0.3243
    13 H(1)   Bbb    -0.0003    -0.163    -0.058    -0.054 -0.1267  0.3061  0.9435
              Bcc     0.0008     0.408     0.145     0.136  0.8310  0.5522 -0.0675
 
              Baa    -0.0012    -0.665    -0.237    -0.222 -0.7034  0.7106  0.0145
    14 H(1)   Bbb    -0.0005    -0.277    -0.099    -0.092 -0.1517 -0.1700  0.9737
              Bcc     0.0018     0.942     0.336     0.314  0.6944  0.6827  0.2274
 
              Baa    -0.0202     1.463     0.522     0.488  0.7942 -0.0203 -0.6074
    15 O(17)  Bbb    -0.0139     1.006     0.359     0.335  0.5901 -0.2128  0.7788
              Bcc     0.0341    -2.469    -0.881    -0.824  0.1451  0.9769  0.1570
 
              Baa    -0.0322     2.330     0.832     0.777  0.4780  0.7575 -0.4446
    16 O(17)  Bbb    -0.0262     1.893     0.675     0.631  0.8580 -0.5110  0.0519
              Bcc     0.0584    -4.223    -1.507    -1.409  0.1879  0.4063  0.8942
 
              Baa    -0.0136     0.987     0.352     0.329  0.7685  0.4734 -0.4305
    17 O(17)  Bbb    -0.0082     0.592     0.211     0.197 -0.4305  0.8803  0.1994
              Bcc     0.0218    -1.579    -0.563    -0.527  0.4734  0.0321  0.8803
 
              Baa    -0.0053     0.386     0.138     0.129  0.9786 -0.2018 -0.0391
    18 O(17)  Bbb     0.0007    -0.053    -0.019    -0.018 -0.0254 -0.3074  0.9512
              Bcc     0.0046    -0.333    -0.119    -0.111  0.2040  0.9299  0.3059
 
              Baa    -0.0017    -0.226    -0.081    -0.076  0.9582  0.2433  0.1508
    19 C(13)  Bbb    -0.0009    -0.126    -0.045    -0.042 -0.0545 -0.3621  0.9305
              Bcc     0.0026     0.353     0.126     0.118 -0.2810  0.8998  0.3337
 
              Baa    -0.0013    -0.174    -0.062    -0.058  0.9006 -0.4187 -0.1170
    20 C(13)  Bbb    -0.0004    -0.058    -0.021    -0.019  0.4049  0.9058 -0.1248
              Bcc     0.0017     0.232     0.083     0.078  0.1582  0.0650  0.9853
 
              Baa    -0.0010    -0.536    -0.191    -0.179  0.9325  0.0109  0.3611
    21 H(1)   Bbb    -0.0009    -0.469    -0.167    -0.157 -0.3433 -0.2847  0.8950
              Bcc     0.0019     1.005     0.359     0.335 -0.1126  0.9586  0.2617
 
              Baa    -0.0016    -0.875    -0.312    -0.292  0.9325  0.3115  0.1830
    22 H(1)   Bbb    -0.0013    -0.672    -0.240    -0.224 -0.0523 -0.3849  0.9215
              Bcc     0.0029     1.547     0.552     0.516 -0.3575  0.8688  0.3426
 
              Baa    -0.0011    -0.568    -0.203    -0.189  0.7304  0.2637  0.6300
    23 H(1)   Bbb    -0.0010    -0.531    -0.189    -0.177 -0.5326 -0.3575  0.7671
              Bcc     0.0021     1.099     0.392     0.366 -0.4276  0.8959  0.1207
 
              Baa    -0.0008    -0.411    -0.147    -0.137 -0.4919  0.8703 -0.0246
    24 H(1)   Bbb    -0.0007    -0.375    -0.134    -0.125  0.8698  0.4925  0.0295
              Bcc     0.0015     0.786     0.280     0.262 -0.0378  0.0069  0.9993
 
              Baa    -0.0008    -0.436    -0.156    -0.145 -0.2332  0.9350  0.2673
    25 H(1)   Bbb    -0.0007    -0.396    -0.141    -0.132  0.9468  0.2810 -0.1571
              Bcc     0.0016     0.832     0.297     0.278  0.2220 -0.2165  0.9507
 
              Baa    -0.0011    -0.580    -0.207    -0.194 -0.6547  0.7508  0.0875
    26 H(1)   Bbb    -0.0009    -0.471    -0.168    -0.157  0.7199  0.6547 -0.2305
              Bcc     0.0020     1.052     0.375     0.351  0.2303  0.0879  0.9691
 
              Baa    -0.0067     0.483     0.172     0.161 -0.2559  0.5140  0.8187
    27 O(17)  Bbb    -0.0062     0.448     0.160     0.149  0.0631  0.8540 -0.5164
              Bcc     0.0129    -0.931    -0.332    -0.310  0.9646  0.0805  0.2510
 
              Baa    -0.0007     0.048     0.017     0.016  0.2320  0.2223  0.9470
    28 O(17)  Bbb    -0.0006     0.047     0.017     0.016  0.6234  0.7133 -0.3202
              Bcc     0.0013    -0.094    -0.034    -0.031  0.7466 -0.6647 -0.0270
 
              Baa    -0.0022     0.158     0.056     0.053 -0.0163  0.3973  0.9175
    29 O(17)  Bbb    -0.0009     0.068     0.024     0.023  0.6437  0.7063 -0.2944
              Bcc     0.0031    -0.226    -0.081    -0.076  0.7651 -0.5858  0.2673
 
              Baa    -0.0007    -0.029    -0.010    -0.010  0.8222  0.0467 -0.5673
    30 S(33)  Bbb    -0.0007    -0.029    -0.010    -0.010  0.3506  0.7437  0.5693
              Bcc     0.0014     0.058     0.021     0.019 -0.4484  0.6669 -0.5951
 
              Baa    -0.0015    -0.060    -0.021    -0.020  0.0092  0.9580 -0.2867
    31 S(33)  Bbb    -0.0006    -0.024    -0.009    -0.008  0.7084 -0.2086 -0.6743
              Bcc     0.0020     0.084     0.030     0.028  0.7058  0.1969  0.6805
 
              Baa    -0.0007    -0.028    -0.010    -0.009  0.5314  0.8338 -0.1494
    32 S(33)  Bbb    -0.0006    -0.025    -0.009    -0.008  0.2547  0.0110  0.9670
              Bcc     0.0013     0.053     0.019     0.018  0.8079 -0.5519 -0.2065
 
              Baa    -0.0007     0.053     0.019     0.018  0.7876  0.4318 -0.4396
    33 O(17)  Bbb    -0.0003     0.021     0.008     0.007  0.0764  0.6395  0.7650
              Bcc     0.0010    -0.074    -0.026    -0.025 -0.6114  0.6361 -0.4706
 
              Baa    -0.0007     0.052     0.018     0.017  0.6140  0.7061  0.3528
    34 O(17)  Bbb    -0.0006     0.046     0.016     0.015  0.7390 -0.3571 -0.5713
              Bcc     0.0013    -0.097    -0.035    -0.032  0.2774 -0.6115  0.7410
 
              Baa    -0.0013     0.093     0.033     0.031  0.4503  0.6940 -0.5618
    35 O(17)  Bbb    -0.0006     0.042     0.015     0.014  0.6846 -0.6723 -0.2816
              Bcc     0.0019    -0.135    -0.048    -0.045  0.5731  0.2578  0.7779
 
              Baa    -0.0016     0.119     0.042     0.040  0.7228 -0.6446 -0.2493
    36 O(17)  Bbb     0.0003    -0.021    -0.007    -0.007 -0.3467 -0.6502  0.6760
              Bcc     0.0014    -0.099    -0.035    -0.033  0.5979  0.4022  0.6934
 
              Baa    -0.0009     0.067     0.024     0.022  0.3400  0.9248 -0.1705
    37 O(17)  Bbb    -0.0009     0.063     0.023     0.021  0.1988  0.1065  0.9742
              Bcc     0.0018    -0.130    -0.046    -0.043  0.9192 -0.3651 -0.1477
 
              Baa    -0.0007     0.049     0.017     0.016  0.6333  0.7730 -0.0357
    38 O(17)  Bbb    -0.0006     0.045     0.016     0.015  0.3238 -0.2228  0.9195
              Bcc     0.0013    -0.094    -0.034    -0.031  0.7029 -0.5939 -0.3915
 
              Baa    -0.0003    -0.043    -0.015    -0.014  0.5051  0.8629  0.0174
    39 C(13)  Bbb    -0.0003    -0.041    -0.015    -0.014  0.1580 -0.1122  0.9810
              Bcc     0.0006     0.084     0.030     0.028  0.8485 -0.4928 -0.1930
 
              Baa    -0.0007    -0.094    -0.033    -0.031 -0.4674  0.7382  0.4865
    40 C(13)  Bbb    -0.0006    -0.074    -0.026    -0.025 -0.0491 -0.5711  0.8194
              Bcc     0.0012     0.168     0.060     0.056  0.8827  0.3591  0.3031
 
              Baa    -0.0004    -0.049    -0.017    -0.016 -0.3212  0.3675  0.8728
    41 C(13)  Bbb    -0.0003    -0.046    -0.016    -0.015  0.8556  0.5077  0.1011
              Bcc     0.0007     0.095     0.034     0.032 -0.4060  0.7792 -0.4776
 
              Baa    -0.0003    -0.139    -0.050    -0.046  0.3473  0.9255 -0.1511
    42 F(19)  Bbb    -0.0003    -0.135    -0.048    -0.045  0.3301  0.0302  0.9435
              Bcc     0.0005     0.274     0.098     0.091  0.8777 -0.3776 -0.2950
 
              Baa    -0.0003    -0.138    -0.049    -0.046  0.4477  0.8594  0.2471
    43 F(19)  Bbb    -0.0003    -0.135    -0.048    -0.045 -0.0646 -0.2445  0.9675
              Bcc     0.0005     0.273     0.097     0.091  0.8919 -0.4491 -0.0539
 
              Baa    -0.0002    -0.119    -0.043    -0.040  0.6154  0.7872  0.0411
    44 F(19)  Bbb    -0.0002    -0.116    -0.042    -0.039  0.1434 -0.1631  0.9761
              Bcc     0.0005     0.236     0.084     0.079  0.7751 -0.5948 -0.2132
 
              Baa    -0.0005    -0.263    -0.094    -0.088 -0.5800  0.5978  0.5533
    45 F(19)  Bbb    -0.0005    -0.226    -0.081    -0.075 -0.0202 -0.6896  0.7239
              Bcc     0.0010     0.489     0.174     0.163  0.8143  0.4087  0.4121
 
              Baa    -0.0004    -0.220    -0.079    -0.073 -0.2489  0.9364  0.2475
    46 F(19)  Bbb    -0.0004    -0.186    -0.066    -0.062 -0.2198 -0.3035  0.9272
              Bcc     0.0008     0.406     0.145     0.135  0.9433  0.1763  0.2813
 
              Baa    -0.0006    -0.317    -0.113    -0.106 -0.5087  0.8432  0.1739
    47 F(19)  Bbb    -0.0006    -0.289    -0.103    -0.096 -0.1173 -0.2679  0.9563
              Bcc     0.0012     0.606     0.216     0.202  0.8529  0.4660  0.2352
 
              Baa    -0.0003    -0.174    -0.062    -0.058 -0.0674  0.4281  0.9012
    48 F(19)  Bbb    -0.0003    -0.167    -0.059    -0.056  0.9597  0.2749 -0.0588
              Bcc     0.0007     0.341     0.122     0.114 -0.2729  0.8609 -0.4293
 
              Baa    -0.0003    -0.150    -0.054    -0.050 -0.4135  0.1376  0.9001
    49 F(19)  Bbb    -0.0003    -0.147    -0.052    -0.049  0.7506  0.6111  0.2513
              Bcc     0.0006     0.297     0.106     0.099 -0.5155  0.7795 -0.3560
 
              Baa    -0.0003    -0.130    -0.046    -0.043 -0.4404  0.3982  0.8046
    50 F(19)  Bbb    -0.0002    -0.122    -0.044    -0.041  0.8105  0.5619  0.1655
              Bcc     0.0005     0.252     0.090     0.084 -0.3862  0.7250 -0.5702
 
              Baa    -0.0235    -3.148    -1.123    -1.050 -0.2257  0.4073  0.8850
    51 C(13)  Bbb    -0.0172    -2.302    -0.821    -0.768  0.9720  0.1556  0.1763
              Bcc     0.0406     5.450     1.945     1.818 -0.0659  0.9000 -0.4310
 
              Baa    -0.0044    -2.322    -0.829    -0.775  0.8162 -0.3461  0.4627
    52 H(1)   Bbb    -0.0015    -0.795    -0.284    -0.265 -0.4943 -0.0034  0.8693
              Bcc     0.0058     3.117     1.112     1.040  0.2993  0.9382  0.1738
 
              Baa    -0.0185    -2.481    -0.885    -0.828 -0.0395  0.4563  0.8890
    53 C(13)  Bbb    -0.0041    -0.552    -0.197    -0.184  0.9126 -0.3459  0.2181
              Bcc     0.0226     3.033     1.082     1.012  0.4070  0.8199 -0.4027
 
              Baa    -0.0069    -0.929    -0.332    -0.310 -0.3030  0.9391  0.1622
    54 C(13)  Bbb    -0.0031    -0.419    -0.149    -0.140 -0.3708 -0.2730  0.8877
              Bcc     0.0100     1.348     0.481     0.450  0.8779  0.2088  0.4309
 
              Baa    -0.0066    -0.882    -0.315    -0.294 -0.0317  0.9538 -0.2987
    55 C(13)  Bbb    -0.0034    -0.456    -0.163    -0.152  0.7192  0.2293  0.6559
              Bcc     0.0100     1.338     0.477     0.446  0.6941 -0.1940 -0.6933
 
              Baa    -0.1490   -19.989    -7.132    -6.668 -0.3931 -0.1442  0.9081
    56 C(13)  Bbb    -0.1447   -19.411    -6.926    -6.475  0.8410  0.3429  0.4185
              Bcc     0.2936    39.400    14.059    13.142 -0.3717  0.9282 -0.0136
 
              Baa    -0.1045   -14.021    -5.003    -4.677  0.3362  0.3703  0.8659
    57 C(13)  Bbb    -0.0851   -11.417    -4.074    -3.808  0.8375  0.3030 -0.4548
              Bcc     0.1896    25.438     9.077     8.485 -0.4308  0.8781 -0.2082
 
              Baa    -0.0192    -2.581    -0.921    -0.861  0.1528  0.8335  0.5310
    58 C(13)  Bbb    -0.0027    -0.363    -0.130    -0.121  0.9361  0.0501 -0.3481
              Bcc     0.0219     2.944     1.051     0.982  0.3167 -0.5502  0.7726
 
              Baa    -0.0189   -10.097    -3.603    -3.368  0.7348  0.2340 -0.6367
    59 H(1)   Bbb    -0.0045    -2.396    -0.855    -0.799 -0.3621  0.9290 -0.0765
              Bcc     0.0234    12.493     4.458     4.167  0.5736  0.2867  0.7673
 
              Baa    -0.0153    -8.187    -2.921    -2.731  0.8104  0.3923  0.4351
    60 H(1)   Bbb    -0.0051    -2.707    -0.966    -0.903 -0.3441  0.9198 -0.1884
              Bcc     0.0204    10.894     3.887     3.634 -0.4742  0.0030  0.8804
 
              Baa    -0.0049    -2.601    -0.928    -0.868 -0.0480  0.9094  0.4132
    61 H(1)   Bbb    -0.0040    -2.148    -0.767    -0.717  0.6990 -0.2649  0.6642
              Bcc     0.0089     4.749     1.695     1.584  0.7135  0.3207 -0.6229
 
              Baa    -0.0078    -0.302    -0.108    -0.101 -0.5854 -0.4020  0.7041
    62 N(14)  Bbb     0.0012     0.045     0.016     0.015  0.8107 -0.2923  0.5072
              Bcc     0.0067     0.257     0.092     0.086  0.0019  0.8677  0.4970
 
              Baa    -0.0065    -0.251    -0.089    -0.084  0.3049  0.8318 -0.4639
    63 N(14)  Bbb    -0.0031    -0.121    -0.043    -0.040  0.7550  0.0858  0.6501
              Bcc     0.0097     0.372     0.133     0.124 -0.5806  0.5484  0.6018
 
              Baa    -0.4274   -16.485    -5.882    -5.499 -0.2005 -0.0189  0.9795
    64 N(14)  Bbb    -0.4179   -16.119    -5.752    -5.377  0.9387  0.2825  0.1976
              Bcc     0.8454    32.604    11.634    10.876 -0.2805  0.9591 -0.0389
 
              Baa    -0.1568    -6.047    -2.158    -2.017  0.6506 -0.0288  0.7589
    65 N(14)  Bbb    -0.1185    -4.571    -1.631    -1.525  0.7535  0.1488 -0.6404
              Bcc     0.2753    10.618     3.789     3.542 -0.0945  0.9884  0.1185
 
              Baa    -0.0159    -2.135    -0.762    -0.712 -0.6624 -0.1438  0.7352
    66 C(13)  Bbb     0.0030     0.401     0.143     0.134  0.6547  0.3659  0.6614
              Bcc     0.0129     1.735     0.619     0.579 -0.3641  0.9195 -0.1482
 
              Baa    -0.0062    -3.305    -1.179    -1.103 -0.3024  0.8754 -0.3770
    67 H(1)   Bbb    -0.0024    -1.257    -0.449    -0.419  0.9283  0.3602  0.0919
              Bcc     0.0086     4.563     1.628     1.522 -0.2163  0.3222  0.9216
 
              Baa    -0.0868     6.280     2.241     2.095  0.9816  0.1872  0.0386
    68 O(17)  Bbb    -0.0776     5.617     2.004     1.874 -0.0579  0.0988  0.9934
              Bcc     0.1644   -11.897    -4.245    -3.968 -0.1821  0.9773 -0.1078
 
              Baa    -0.0046    -0.430    -0.153    -0.143 -0.2684 -0.1752  0.9472
    69 Yb(171 Bbb     0.0006     0.054     0.019     0.018  0.6824  0.6595  0.3153
              Bcc     0.0040     0.376     0.134     0.125 -0.6799  0.7311 -0.0575
 

 ---------------------------------------------------------------------------------


 This type of calculation cannot be archived.


 THEORY:  SUPPOSITION WHICH HAS SCIENTIFIC BASIS,
          BUT NOT EXPERIMENTALLY PROVEN.
 FACT:    A THEORY WHICH HAS BEEN PROVEN BY ENOUGH 
          MONEY TO PAY FOR THE EXPERIMENTS.

                          --  THE WIZARD OF ID
 Job cpu time:      29 days  6 hours 55 minutes 54.0 seconds.
 Elapsed time:       3 days  2 hours  8 minutes 17.5 seconds.
 File lengths (MBytes):  RWF=  13682 Int=      0 D2E=      0 Chk=    154 Scr=      1
 Normal termination of Gaussian 16 at Sat Mar  1 16:56:38 2025.
