 Entering Gaussian System, Link 0=/sysapps/ubuntu-applications/gaussian-new/avx/g16//g16
 Input=i3-maj.in
 Output=i3-maj.log
 Initial command:
 /sysapps/ubuntu-applications/gaussian-new/avx/g16/l1.exe "/data/temp-scratch/selhajj1/306806/Gau-2822062.inp" -scrdir="/data/temp-scratch/selhajj1/306806/"
 Entering Link 1 = /sysapps/ubuntu-applications/gaussian-new/avx/g16/l1.exe PID=   2822064.
  
 Copyright (c) 1988,1990,1992,1993,1995,1998,2003,2009,2016,
            Gaussian, Inc.  All Rights Reserved.
  
 This is part of the Gaussian(R) 16 program.  It is based on
 the Gaussian(R) 09 system (copyright 2009, Gaussian, Inc.),
 the Gaussian(R) 03 system (copyright 2003, Gaussian, Inc.),
 the Gaussian(R) 98 system (copyright 1998, Gaussian, Inc.),
 the Gaussian(R) 94 system (copyright 1995, Gaussian, Inc.),
 the Gaussian 92(TM) system (copyright 1992, Gaussian, Inc.),
 the Gaussian 90(TM) system (copyright 1990, Gaussian, Inc.),
 the Gaussian 88(TM) system (copyright 1988, Gaussian, Inc.),
 the Gaussian 86(TM) system (copyright 1986, Carnegie Mellon
 University), and the Gaussian 82(TM) system (copyright 1983,
 Carnegie Mellon University). Gaussian is a federally registered
 trademark of Gaussian, Inc.
  
 This software contains proprietary and confidential information,
 including trade secrets, belonging to Gaussian, Inc.
  
 This software is provided under written license and may be
 used, copied, transmitted, or stored only in accord with that
 written license.
  
 The following legend is applicable only to US Government
 contracts under FAR:
  
                    RESTRICTED RIGHTS LEGEND
  
 Use, reproduction and disclosure by the US Government is
 subject to restrictions as set forth in subparagraphs (a)
 and (c) of the Commercial Computer Software - Restricted
 Rights clause in FAR 52.227-19.
  
 Gaussian, Inc.
 340 Quinnipiac St., Bldg. 40, Wallingford CT 06492
  
  
 ---------------------------------------------------------------
 Warning -- This program may not be used in any manner that
 competes with the business of Gaussian, Inc. or will provide
 assistance to any competitor of Gaussian, Inc.  The licensee
 of this program is prohibited from giving any competitor of
 Gaussian, Inc. access to this program.  By using this program,
 the user acknowledges that Gaussian, Inc. is engaged in the
 business of creating and licensing software in the field of
 computational chemistry and represents and warrants to the
 licensee that it is not a competitor of Gaussian, Inc. and that
 it will not use this program in any manner prohibited above.
 ---------------------------------------------------------------
  

 Cite this work as:
 Gaussian 16, Revision A.03,
 M. J. Frisch, G. W. Trucks, H. B. Schlegel, G. E. Scuseria, 
 M. A. Robb, J. R. Cheeseman, G. Scalmani, V. Barone, 
 G. A. Petersson, H. Nakatsuji, X. Li, M. Caricato, A. V. Marenich, 
 J. Bloino, B. G. Janesko, R. Gomperts, B. Mennucci, H. P. Hratchian, 
 J. V. Ortiz, A. F. Izmaylov, J. L. Sonnenberg, D. Williams-Young, 
 F. Ding, F. Lipparini, F. Egidi, J. Goings, B. Peng, A. Petrone, 
 T. Henderson, D. Ranasinghe, V. G. Zakrzewski, J. Gao, N. Rega, 
 G. Zheng, W. Liang, M. Hada, M. Ehara, K. Toyota, R. Fukuda, 
 J. Hasegawa, M. Ishida, T. Nakajima, Y. Honda, O. Kitao, H. Nakai, 
 T. Vreven, K. Throssell, J. A. Montgomery, Jr., J. E. Peralta, 
 F. Ogliaro, M. J. Bearpark, J. J. Heyd, E. N. Brothers, K. N. Kudin, 
 V. N. Staroverov, T. A. Keith, R. Kobayashi, J. Normand, 
 K. Raghavachari, A. P. Rendell, J. C. Burant, S. S. Iyengar, 
 J. Tomasi, M. Cossi, J. M. Millam, M. Klene, C. Adamo, R. Cammi, 
 J. W. Ochterski, R. L. Martin, K. Morokuma, O. Farkas, 
 J. B. Foresman, and D. J. Fox, Gaussian, Inc., Wallingford CT, 2016.
 
 ******************************************
 Gaussian 16:  ES64L-G16RevA.03 25-Dec-2016
                 1-May-2025 
 ******************************************
 %chk=i3-maj.chk
 %mem=616Gb
 %nprocshared=24
 Will use up to   24 processors via shared memory.
 ----------------------------------------------------------------------
 #P UMN15/genecp scf=(maxcyc=500) opt scrf=(smd,solvent=DiChloroEthane)
 ----------------------------------------------------------------------
 1/18=20,19=15,26=3,38=1/1,3;
 2/9=110,12=2,17=6,18=5,40=1/2;
 3/5=7,11=2,16=1,17=8,25=1,30=1,70=32201,71=1,72=10,74=-73,116=2/1,2,3;
 4//1;
 5/5=2,7=500,38=5,53=10/2;
 6/7=2,8=2,9=2,10=2,28=1/1;
 7//1,2,3,16;
 1/18=20,19=15,26=3/3(2);
 2/9=110/2;
 99//99;
 2/9=110/2;
 3/5=7,6=1,11=2,16=1,17=8,25=1,30=1,70=32205,71=1,72=10,74=-73,82=7,116=2/1,2,3;
 4/5=5,16=3,69=1/1;
 5/5=2,7=500,38=5,53=10/2;
 7//1,2,3,16;
 1/18=20,19=15,26=3/3(-5);
 2/9=110/2;
 6/7=2,8=2,9=2,10=2,19=2,28=1/1;
 99/9=1/99;
 Leave Link    1 at Thu May  1 00:17:55 2025, MaxMem= 82678120448 cpu:               2.9 elap:               0.2
 (Enter /sysapps/ubuntu-applications/gaussian-new/avx/g16/l101.exe)
 ---
 Opt
 ---
 Symbolic Z-matrix:
 Charge =  0 Multiplicity = 1
 C                    -5.59092   0.74532   0.11495 
 C                    -6.70628   0.72828  -0.7317 
 C                    -7.72834   1.66226  -0.55841 
 C                    -7.63443   2.6202    0.45451 
 C                    -6.51807   2.64276   1.29454 
 C                    -5.49583   1.70693   1.129 
 C                    -2.10796  -0.47942   0.44935 
 C                    -1.43023  -0.62668  -0.91803 
 C                    -1.18242   0.2015    1.44388 
 H                    -6.76884  -0.01752  -1.52929 
 H                    -8.59587   1.64704  -1.22157 
 H                    -8.43178   3.35513   0.5862 
 H                    -6.4407    3.39489   2.08269 
 H                    -4.61546   1.72258   1.77548 
 O                    -0.00735  -0.16849   1.5655 
 O                    -0.22351  -0.54142  -1.12541 
 O                     3.28737  -0.37539   1.52767 
 O                     2.81488  -0.93128  -1.54947 
 O                     0.07838   2.06537  -0.03329 
 S                     0.8535    2.78007  -1.09136 
 S                     3.62666   1.02271   1.95049 
 S                     2.62169  -2.33028  -1.03525 
 O                     1.87891   1.7908   -1.56288 
 O                     1.29784   4.12081  -0.81941 
 O                     2.54112   1.86185   1.34996 
 O                     3.9917    1.25167   3.31962 
 O                     1.72711  -2.18465   0.1494 
 O                     2.28998  -3.34619  -2.00042 
 C                     4.29028  -2.79574  -0.33424 
 C                     5.07841   1.40784   0.8873 
 C                    -0.31174   2.92712  -2.51216 
 F                     4.13127  -3.26616   0.88504 
 F                     5.07887  -1.73988  -0.30769 
 F                     4.82179  -3.72371  -1.10439 
 F                     4.70805   1.20024  -0.36995 
 F                     6.0796    0.61083   1.19425 
 F                     5.43351   2.66479   1.04513 
 F                    -0.95338   1.78217  -2.68952 
 F                     0.37144   3.22228  -3.59884 
 F                    -1.18143   3.8821   -2.25419 
 C                    -4.51932  -0.29739  -0.05567 
 H                    -4.47458  -0.63831  -1.10296 
 C                    -4.76171  -1.59808   0.7744 
 C                    -6.00373  -2.26276   0.33894 
 C                    -4.87414  -1.25717   2.21106 
 C                    -1.25473  -2.90661   0.76213 
 C                    -2.67253  -3.87577  -0.94673 
 C                    -1.40335  -3.7994   -0.23105 
 H                    -0.33134  -2.82145   1.33544 
 H                    -2.78741  -4.51397  -1.82619 
 H                    -0.59528  -4.482    -0.50043 
 N                    -7.00958  -2.7261    0.00592 
 N                    -4.94362  -0.95397   3.32526 
 N                    -3.61471  -2.47735   0.56947 
 N                    -3.7153   -3.2282   -0.56006 
 C                    -2.36245  -1.93757   1.05431 
 H                    -2.46573  -1.77644   2.14104 
 Lu                    1.59882   0.17044   0.03463 
 O                    -3.28729   0.2555    0.36853 
 C                    -1.75871   1.14178   2.2315 
 H                    -2.16408   1.92014   1.61935 
 H                    -2.54311   0.69433   2.80543 
 H                    -1.02394   1.55326   2.89157 
 C                    -2.34924  -0.96284  -1.92119 
 H                    -2.98885  -1.74592  -1.57108 
 H                    -2.93847  -0.10428  -2.16736 
 H                    -1.8221   -1.29498  -2.79108 
 
 ITRead=  0  0  0  0  0  0  0  0  0  0  0  0  0  0  0  0  0  0  0  0
 ITRead=  0  0  0  0  0  0  0  0  0  0  0  0  0  0  0  0  0  0  0  0
 ITRead=  0  0  0  0  0  0  0  0  0  0  0  0  0  0  0  0  0  0  0  0
 ITRead=  0  0  0  0  0  0  0
 MicOpt= -1 -1 -1 -1 -1 -1 -1 -1 -1 -1 -1 -1 -1 -1 -1 -1 -1 -1 -1 -1
 MicOpt= -1 -1 -1 -1 -1 -1 -1 -1 -1 -1 -1 -1 -1 -1 -1 -1 -1 -1 -1 -1
 MicOpt= -1 -1 -1 -1 -1 -1 -1 -1 -1 -1 -1 -1 -1 -1 -1 -1 -1 -1 -1 -1
 MicOpt= -1 -1 -1 -1 -1 -1 -1
 NAtoms=     67 NQM=       67 NQMF=       0 NMMI=      0 NMMIF=      0
                NMic=       0 NMicF=      0.
                    Isotopes and Nuclear Properties:
 (Nuclear quadrupole moments (NQMom) in fm**2, nuclear magnetic moments (NMagM)
  in nuclear magnetons)

  Atom         1           2           3           4           5           6           7           8           9          10
 IAtWgt=          12          12          12          12          12          12          12          12          12           1
 AtmWgt=  12.0000000  12.0000000  12.0000000  12.0000000  12.0000000  12.0000000  12.0000000  12.0000000  12.0000000   1.0078250
 NucSpn=           0           0           0           0           0           0           0           0           0           1
 AtZEff=  -0.0000000  -0.0000000  -0.0000000  -0.0000000  -0.0000000  -0.0000000  -0.0000000  -0.0000000  -0.0000000  -0.0000000
 NQMom=    0.0000000   0.0000000   0.0000000   0.0000000   0.0000000   0.0000000   0.0000000   0.0000000   0.0000000   0.0000000
 NMagM=    0.0000000   0.0000000   0.0000000   0.0000000   0.0000000   0.0000000   0.0000000   0.0000000   0.0000000   2.7928460
 AtZNuc=   6.0000000   6.0000000   6.0000000   6.0000000   6.0000000   6.0000000   6.0000000   6.0000000   6.0000000   1.0000000

  Atom        11          12          13          14          15          16          17          18          19          20
 IAtWgt=           1           1           1           1          16          16          16          16          16          32
 AtmWgt=   1.0078250   1.0078250   1.0078250   1.0078250  15.9949146  15.9949146  15.9949146  15.9949146  15.9949146  31.9720718
 NucSpn=           1           1           1           1           0           0           0           0           0           0
 AtZEff=  -0.0000000  -0.0000000  -0.0000000  -0.0000000  -0.0000000  -0.0000000  -0.0000000  -0.0000000  -0.0000000  -0.0000000
 NQMom=    0.0000000   0.0000000   0.0000000   0.0000000   0.0000000   0.0000000   0.0000000   0.0000000   0.0000000   0.0000000
 NMagM=    2.7928460   2.7928460   2.7928460   2.7928460   0.0000000   0.0000000   0.0000000   0.0000000   0.0000000   0.0000000
 AtZNuc=   1.0000000   1.0000000   1.0000000   1.0000000   8.0000000   8.0000000   8.0000000   8.0000000   8.0000000  16.0000000

  Atom        21          22          23          24          25          26          27          28          29          30
 IAtWgt=          32          32          16          16          16          16          16          16          12          12
 AtmWgt=  31.9720718  31.9720718  15.9949146  15.9949146  15.9949146  15.9949146  15.9949146  15.9949146  12.0000000  12.0000000
 NucSpn=           0           0           0           0           0           0           0           0           0           0
 AtZEff=  -0.0000000  -0.0000000  -0.0000000  -0.0000000  -0.0000000  -0.0000000  -0.0000000  -0.0000000  -0.0000000  -0.0000000
 NQMom=    0.0000000   0.0000000   0.0000000   0.0000000   0.0000000   0.0000000   0.0000000   0.0000000   0.0000000   0.0000000
 NMagM=    0.0000000   0.0000000   0.0000000   0.0000000   0.0000000   0.0000000   0.0000000   0.0000000   0.0000000   0.0000000
 AtZNuc=  16.0000000  16.0000000   8.0000000   8.0000000   8.0000000   8.0000000   8.0000000   8.0000000   6.0000000   6.0000000

  Atom        31          32          33          34          35          36          37          38          39          40
 IAtWgt=          12          19          19          19          19          19          19          19          19          19
 AtmWgt=  12.0000000  18.9984032  18.9984032  18.9984032  18.9984032  18.9984032  18.9984032  18.9984032  18.9984032  18.9984032
 NucSpn=           0           1           1           1           1           1           1           1           1           1
 AtZEff=  -0.0000000  -0.0000000  -0.0000000  -0.0000000  -0.0000000  -0.0000000  -0.0000000  -0.0000000  -0.0000000  -0.0000000
 NQMom=    0.0000000   0.0000000   0.0000000   0.0000000   0.0000000   0.0000000   0.0000000   0.0000000   0.0000000   0.0000000
 NMagM=    0.0000000   2.6288670   2.6288670   2.6288670   2.6288670   2.6288670   2.6288670   2.6288670   2.6288670   2.6288670
 AtZNuc=   6.0000000   9.0000000   9.0000000   9.0000000   9.0000000   9.0000000   9.0000000   9.0000000   9.0000000   9.0000000

  Atom        41          42          43          44          45          46          47          48          49          50
 IAtWgt=          12           1          12          12          12          12          12          12           1           1
 AtmWgt=  12.0000000   1.0078250  12.0000000  12.0000000  12.0000000  12.0000000  12.0000000  12.0000000   1.0078250   1.0078250
 NucSpn=           0           1           0           0           0           0           0           0           1           1
 AtZEff=  -0.0000000  -0.0000000  -0.0000000  -0.0000000  -0.0000000  -0.0000000  -0.0000000  -0.0000000  -0.0000000  -0.0000000
 NQMom=    0.0000000   0.0000000   0.0000000   0.0000000   0.0000000   0.0000000   0.0000000   0.0000000   0.0000000   0.0000000
 NMagM=    0.0000000   2.7928460   0.0000000   0.0000000   0.0000000   0.0000000   0.0000000   0.0000000   2.7928460   2.7928460
 AtZNuc=   6.0000000   1.0000000   6.0000000   6.0000000   6.0000000   6.0000000   6.0000000   6.0000000   1.0000000   1.0000000

  Atom        51          52          53          54          55          56          57          58          59          60
 IAtWgt=           1          14          14          14          14          12           1         175          16          12
 AtmWgt=   1.0078250  14.0030740  14.0030740  14.0030740  14.0030740  12.0000000   1.0078250 174.9409000  15.9949146  12.0000000
 NucSpn=           1           2           2           2           2           0           1           7           0           0
 AtZEff=  -0.0000000  -0.0000000  -0.0000000  -0.0000000  -0.0000000  -0.0000000  -0.0000000  -0.0000000  -0.0000000  -0.0000000
 NQMom=    0.0000000   2.0440000   2.0440000   2.0440000   2.0440000   0.0000000   0.0000000 349.0000000   0.0000000   0.0000000
 NMagM=    2.7928460   0.4037610   0.4037610   0.4037610   0.4037610   0.0000000   2.7928460   2.2327000   0.0000000   0.0000000
 AtZNuc=   1.0000000   7.0000000   7.0000000   7.0000000   7.0000000   6.0000000   1.0000000  71.0000000   8.0000000   6.0000000

  Atom        61          62          63          64          65          66          67
 IAtWgt=           1           1           1          12           1           1           1
 AtmWgt=   1.0078250   1.0078250   1.0078250  12.0000000   1.0078250   1.0078250   1.0078250
 NucSpn=           1           1           1           0           1           1           1
 AtZEff=  -0.0000000  -0.0000000  -0.0000000  -0.0000000  -0.0000000  -0.0000000  -0.0000000
 NQMom=    0.0000000   0.0000000   0.0000000   0.0000000   0.0000000   0.0000000   0.0000000
 NMagM=    2.7928460   2.7928460   2.7928460   0.0000000   2.7928460   2.7928460   2.7928460
 AtZNuc=   1.0000000   1.0000000   1.0000000   6.0000000   1.0000000   1.0000000   1.0000000
 Leave Link  101 at Thu May  1 00:17:56 2025, MaxMem= 82678120448 cpu:              10.3 elap:               0.5
 (Enter /sysapps/ubuntu-applications/gaussian-new/avx/g16/l103.exe)

 GradGradGradGradGradGradGradGradGradGradGradGradGradGradGradGradGradGrad
 Berny optimization.
 Initialization pass.
                           ----------------------------
                           !    Initial Parameters    !
                           ! (Angstroms and Degrees)  !
 --------------------------                            --------------------------
 ! Name  Definition              Value          Derivative Info.                !
 --------------------------------------------------------------------------------
 ! R1    R(1,2)                  1.4004         estimate D2E/DX2                !
 ! R2    R(1,6)                  1.4007         estimate D2E/DX2                !
 ! R3    R(1,41)                 1.5049         estimate D2E/DX2                !
 ! R4    R(2,3)                  1.3953         estimate D2E/DX2                !
 ! R5    R(2,10)                 1.0937         estimate D2E/DX2                !
 ! R6    R(3,4)                  1.3973         estimate D2E/DX2                !
 ! R7    R(3,11)                 1.0921         estimate D2E/DX2                !
 ! R8    R(4,5)                  1.3973         estimate D2E/DX2                !
 ! R9    R(4,12)                 1.0923         estimate D2E/DX2                !
 ! R10   R(5,6)                  1.3958         estimate D2E/DX2                !
 ! R11   R(5,13)                 1.0922         estimate D2E/DX2                !
 ! R12   R(6,14)                 1.0923         estimate D2E/DX2                !
 ! R13   R(7,8)                  1.5332         estimate D2E/DX2                !
 ! R14   R(7,9)                  1.5197         estimate D2E/DX2                !
 ! R15   R(7,56)                 1.599          estimate D2E/DX2                !
 ! R16   R(7,59)                 1.3919         estimate D2E/DX2                !
 ! R17   R(8,16)                 1.2274         estimate D2E/DX2                !
 ! R18   R(8,64)                 1.4014         estimate D2E/DX2                !
 ! R19   R(9,15)                 1.2379         estimate D2E/DX2                !
 ! R20   R(9,60)                 1.3552         estimate D2E/DX2                !
 ! R21   R(15,58)                2.2446         estimate D2E/DX2                !
 ! R22   R(16,58)                2.2745         estimate D2E/DX2                !
 ! R23   R(17,21)                1.4995         estimate D2E/DX2                !
 ! R24   R(17,58)                2.3191         estimate D2E/DX2                !
 ! R25   R(18,22)                1.503          estimate D2E/DX2                !
 ! R26   R(18,58)                2.2808         estimate D2E/DX2                !
 ! R27   R(19,20)                1.4937         estimate D2E/DX2                !
 ! R28   R(19,58)                2.4305         estimate D2E/DX2                !
 ! R29   R(20,23)                1.5008         estimate D2E/DX2                !
 ! R30   R(20,24)                1.4384         estimate D2E/DX2                !
 ! R31   R(20,31)                1.8434         estimate D2E/DX2                !
 ! R32   R(20,58)                2.9383         estimate D2E/DX2                !
 ! R33   R(21,25)                1.4977         estimate D2E/DX2                !
 ! R34   R(21,26)                1.4353         estimate D2E/DX2                !
 ! R35   R(21,30)                1.8402         estimate D2E/DX2                !
 ! R36   R(21,58)                2.917          estimate D2E/DX2                !
 ! R37   R(22,27)                1.4916         estimate D2E/DX2                !
 ! R38   R(22,28)                1.44           estimate D2E/DX2                !
 ! R39   R(22,29)                1.8688         estimate D2E/DX2                !
 ! R40   R(22,58)                2.9059         estimate D2E/DX2                !
 ! R41   R(23,58)                2.2926         estimate D2E/DX2                !
 ! R42   R(25,58)                2.3407         estimate D2E/DX2                !
 ! R43   R(27,58)                2.3614         estimate D2E/DX2                !
 ! R44   R(29,32)                1.3165         estimate D2E/DX2                !
 ! R45   R(29,33)                1.3181         estimate D2E/DX2                !
 ! R46   R(29,34)                1.3179         estimate D2E/DX2                !
 ! R47   R(30,35)                1.327          estimate D2E/DX2                !
 ! R48   R(30,36)                1.316          estimate D2E/DX2                !
 ! R49   R(30,37)                1.3156         estimate D2E/DX2                !
 ! R50   R(31,38)                1.3244         estimate D2E/DX2                !
 ! R51   R(31,39)                1.3171         estimate D2E/DX2                !
 ! R52   R(31,40)                1.3172         estimate D2E/DX2                !
 ! R53   R(41,42)                1.1023         estimate D2E/DX2                !
 ! R54   R(41,43)                1.5619         estimate D2E/DX2                !
 ! R55   R(41,59)                1.4155         estimate D2E/DX2                !
 ! R56   R(43,44)                1.4745         estimate D2E/DX2                !
 ! R57   R(43,45)                1.4808         estimate D2E/DX2                !
 ! R58   R(43,54)                1.4597         estimate D2E/DX2                !
 ! R59   R(44,52)                1.1564         estimate D2E/DX2                !
 ! R60   R(45,53)                1.1568         estimate D2E/DX2                !
 ! R61   R(46,48)                1.3437         estimate D2E/DX2                !
 ! R62   R(46,49)                1.0902         estimate D2E/DX2                !
 ! R63   R(46,56)                1.5005         estimate D2E/DX2                !
 ! R64   R(47,48)                1.4591         estimate D2E/DX2                !
 ! R65   R(47,50)                1.0927         estimate D2E/DX2                !
 ! R66   R(47,55)                1.2869         estimate D2E/DX2                !
 ! R67   R(48,51)                1.0916         estimate D2E/DX2                !
 ! R68   R(54,55)                1.3601         estimate D2E/DX2                !
 ! R69   R(54,56)                1.4473         estimate D2E/DX2                !
 ! R70   R(56,57)                1.1035         estimate D2E/DX2                !
 ! R71   R(60,61)                1.07           estimate D2E/DX2                !
 ! R72   R(60,62)                1.07           estimate D2E/DX2                !
 ! R73   R(60,63)                1.07           estimate D2E/DX2                !
 ! R74   R(64,65)                1.07           estimate D2E/DX2                !
 ! R75   R(64,66)                1.07           estimate D2E/DX2                !
 ! R76   R(64,67)                1.07           estimate D2E/DX2                !
 ! A1    A(2,1,6)              120.0069         estimate D2E/DX2                !
 ! A2    A(2,1,41)             119.3517         estimate D2E/DX2                !
 ! A3    A(6,1,41)             120.6239         estimate D2E/DX2                !
 ! A4    A(1,2,3)              120.0111         estimate D2E/DX2                !
 ! A5    A(1,2,10)             119.6514         estimate D2E/DX2                !
 ! A6    A(3,2,10)             120.3371         estimate D2E/DX2                !
 ! A7    A(2,3,4)              119.9789         estimate D2E/DX2                !
 ! A8    A(2,3,11)             119.8112         estimate D2E/DX2                !
 ! A9    A(4,3,11)             120.2078         estimate D2E/DX2                !
 ! A10   A(3,4,5)              120.0376         estimate D2E/DX2                !
 ! A11   A(3,4,12)             119.972          estimate D2E/DX2                !
 ! A12   A(5,4,12)             119.9896         estimate D2E/DX2                !
 ! A13   A(4,5,6)              120.1992         estimate D2E/DX2                !
 ! A14   A(4,5,13)             120.1028         estimate D2E/DX2                !
 ! A15   A(6,5,13)             119.6978         estimate D2E/DX2                !
 ! A16   A(1,6,5)              119.7641         estimate D2E/DX2                !
 ! A17   A(1,6,14)             119.5385         estimate D2E/DX2                !
 ! A18   A(5,6,14)             120.694          estimate D2E/DX2                !
 ! A19   A(8,7,9)              110.9453         estimate D2E/DX2                !
 ! A20   A(8,7,56)             108.6737         estimate D2E/DX2                !
 ! A21   A(8,7,59)             111.9284         estimate D2E/DX2                !
 ! A22   A(9,7,56)             104.9475         estimate D2E/DX2                !
 ! A23   A(9,7,59)             108.5079         estimate D2E/DX2                !
 ! A24   A(56,7,59)            111.6286         estimate D2E/DX2                !
 ! A25   A(7,8,16)             125.3528         estimate D2E/DX2                !
 ! A26   A(7,8,64)             111.8122         estimate D2E/DX2                !
 ! A27   A(16,8,64)            122.7152         estimate D2E/DX2                !
 ! A28   A(7,9,15)             120.5632         estimate D2E/DX2                !
 ! A29   A(7,9,60)             115.6102         estimate D2E/DX2                !
 ! A30   A(15,9,60)            123.6365         estimate D2E/DX2                !
 ! A31   A(9,15,58)            124.548          estimate D2E/DX2                !
 ! A32   A(8,16,58)            136.3264         estimate D2E/DX2                !
 ! A33   A(19,20,23)           105.1713         estimate D2E/DX2                !
 ! A34   A(19,20,24)           118.1885         estimate D2E/DX2                !
 ! A35   A(19,20,31)           104.8398         estimate D2E/DX2                !
 ! A36   A(23,20,24)           117.5638         estimate D2E/DX2                !
 ! A37   A(23,20,31)           104.0233         estimate D2E/DX2                !
 ! A38   A(24,20,31)           105.4644         estimate D2E/DX2                !
 ! A39   A(24,20,58)           132.6125         estimate D2E/DX2                !
 ! A40   A(31,20,58)           121.7729         estimate D2E/DX2                !
 ! A41   A(17,21,25)           104.2009         estimate D2E/DX2                !
 ! A42   A(17,21,26)           118.3748         estimate D2E/DX2                !
 ! A43   A(17,21,30)           102.1651         estimate D2E/DX2                !
 ! A44   A(25,21,26)           118.5171         estimate D2E/DX2                !
 ! A45   A(25,21,30)           102.8781         estimate D2E/DX2                !
 ! A46   A(26,21,30)           108.487          estimate D2E/DX2                !
 ! A47   A(26,21,58)           148.2004         estimate D2E/DX2                !
 ! A48   A(30,21,58)           103.3037         estimate D2E/DX2                !
 ! A49   A(18,22,27)           104.9476         estimate D2E/DX2                !
 ! A50   A(18,22,28)           117.1918         estimate D2E/DX2                !
 ! A51   A(18,22,29)           104.2065         estimate D2E/DX2                !
 ! A52   A(27,22,28)           117.5837         estimate D2E/DX2                !
 ! A53   A(27,22,29)           105.1829         estimate D2E/DX2                !
 ! A54   A(28,22,29)           106.3427         estimate D2E/DX2                !
 ! A55   A(28,22,58)           140.605          estimate D2E/DX2                !
 ! A56   A(29,22,58)           112.9871         estimate D2E/DX2                !
 ! A57   A(22,29,32)           109.1819         estimate D2E/DX2                !
 ! A58   A(22,29,33)           110.0124         estimate D2E/DX2                !
 ! A59   A(22,29,34)           108.438          estimate D2E/DX2                !
 ! A60   A(32,29,33)           109.8666         estimate D2E/DX2                !
 ! A61   A(32,29,34)           109.7754         estimate D2E/DX2                !
 ! A62   A(33,29,34)           109.5445         estimate D2E/DX2                !
 ! A63   A(21,30,35)           107.1259         estimate D2E/DX2                !
 ! A64   A(21,30,36)           109.7963         estimate D2E/DX2                !
 ! A65   A(21,30,37)           110.0946         estimate D2E/DX2                !
 ! A66   A(35,30,36)           109.7899         estimate D2E/DX2                !
 ! A67   A(35,30,37)           109.7829         estimate D2E/DX2                !
 ! A68   A(36,30,37)           110.1996         estimate D2E/DX2                !
 ! A69   A(20,31,38)           109.9075         estimate D2E/DX2                !
 ! A70   A(20,31,39)           109.0212         estimate D2E/DX2                !
 ! A71   A(20,31,40)           108.9204         estimate D2E/DX2                !
 ! A72   A(38,31,39)           109.5448         estimate D2E/DX2                !
 ! A73   A(38,31,40)           109.4585         estimate D2E/DX2                !
 ! A74   A(39,31,40)           109.9742         estimate D2E/DX2                !
 ! A75   A(1,41,42)            110.5434         estimate D2E/DX2                !
 ! A76   A(1,41,43)            113.9694         estimate D2E/DX2                !
 ! A77   A(1,41,59)            108.3718         estimate D2E/DX2                !
 ! A78   A(42,41,43)           104.6945         estimate D2E/DX2                !
 ! A79   A(42,41,59)           111.7288         estimate D2E/DX2                !
 ! A80   A(43,41,59)           107.5229         estimate D2E/DX2                !
 ! A81   A(41,43,44)           110.4363         estimate D2E/DX2                !
 ! A82   A(41,43,45)           109.6125         estimate D2E/DX2                !
 ! A83   A(41,43,54)           107.7626         estimate D2E/DX2                !
 ! A84   A(44,43,45)           109.0477         estimate D2E/DX2                !
 ! A85   A(44,43,54)           110.4199         estimate D2E/DX2                !
 ! A86   A(45,43,54)           109.5447         estimate D2E/DX2                !
 ! A87   A(48,46,49)           122.2944         estimate D2E/DX2                !
 ! A88   A(48,46,56)           119.4304         estimate D2E/DX2                !
 ! A89   A(49,46,56)           118.1915         estimate D2E/DX2                !
 ! A90   A(48,47,50)           121.119          estimate D2E/DX2                !
 ! A91   A(48,47,55)           122.0803         estimate D2E/DX2                !
 ! A92   A(50,47,55)           116.778          estimate D2E/DX2                !
 ! A93   A(46,48,47)           119.5736         estimate D2E/DX2                !
 ! A94   A(46,48,51)           121.0654         estimate D2E/DX2                !
 ! A95   A(47,48,51)           119.352          estimate D2E/DX2                !
 ! A96   A(43,54,55)           113.0188         estimate D2E/DX2                !
 ! A97   A(43,54,56)           114.0923         estimate D2E/DX2                !
 ! A98   A(55,54,56)           123.2382         estimate D2E/DX2                !
 ! A99   A(47,55,54)           117.8656         estimate D2E/DX2                !
 ! A100  A(7,56,46)            113.4377         estimate D2E/DX2                !
 ! A101  A(7,56,54)            110.5529         estimate D2E/DX2                !
 ! A102  A(7,56,57)            104.7342         estimate D2E/DX2                !
 ! A103  A(46,56,54)           109.4307         estimate D2E/DX2                !
 ! A104  A(46,56,57)           110.8041         estimate D2E/DX2                !
 ! A105  A(54,56,57)           107.6619         estimate D2E/DX2                !
 ! A106  A(15,58,16)            74.1733         estimate D2E/DX2                !
 ! A107  A(15,58,17)            92.6584         estimate D2E/DX2                !
 ! A108  A(15,58,18)           141.4699         estimate D2E/DX2                !
 ! A109  A(15,58,19)            71.889          estimate D2E/DX2                !
 ! A110  A(15,58,20)           102.3544         estimate D2E/DX2                !
 ! A111  A(15,58,21)            95.3719         estimate D2E/DX2                !
 ! A112  A(15,58,22)           111.9027         estimate D2E/DX2                !
 ! A113  A(15,58,23)           132.0195         estimate D2E/DX2                !
 ! A114  A(15,58,25)            90.7979         estimate D2E/DX2                !
 ! A115  A(15,58,27)            81.6703         estimate D2E/DX2                !
 ! A116  A(16,58,17)           146.934          estimate D2E/DX2                !
 ! A117  A(16,58,18)            85.513          estimate D2E/DX2                !
 ! A118  A(16,58,19)            74.2492         estimate D2E/DX2                !
 ! A119  A(16,58,20)            83.0668         estimate D2E/DX2                !
 ! A120  A(16,58,22)            79.9161         estimate D2E/DX2                !
 ! A121  A(16,58,23)            87.9197         estimate D2E/DX2                !
 ! A122  A(16,58,25)           146.6472         estimate D2E/DX2                !
 ! A123  A(16,58,27)            75.8874         estimate D2E/DX2                !
 ! A124  A(17,58,18)            86.8616         estimate D2E/DX2                !
 ! A125  A(17,58,19)           131.0699         estimate D2E/DX2                !
 ! A126  A(17,58,20)           129.8246         estimate D2E/DX2                !
 ! A127  A(17,58,22)            77.1852         estimate D2E/DX2                !
 ! A128  A(17,58,23)           121.7356         estimate D2E/DX2                !
 ! A129  A(17,58,25)            60.9998         estimate D2E/DX2                !
 ! A130  A(17,58,27)            72.2068         estimate D2E/DX2                !
 ! A131  A(18,58,19)           133.689          estimate D2E/DX2                !
 ! A132  A(18,58,20)           107.3436         estimate D2E/DX2                !
 ! A133  A(18,58,21)           103.0999         estimate D2E/DX2                !
 ! A134  A(18,58,23)            78.0126         estimate D2E/DX2                !
 ! A135  A(18,58,25)           121.6482         estimate D2E/DX2                !
 ! A136  A(18,58,27)            61.5123         estimate D2E/DX2                !
 ! A137  A(19,58,21)           103.0292         estimate D2E/DX2                !
 ! A138  A(19,58,22)           151.745          estimate D2E/DX2                !
 ! A139  A(19,58,23)            60.3901         estimate D2E/DX2                !
 ! A140  A(19,58,25)            72.7919         estimate D2E/DX2                !
 ! A141  A(19,58,27)           144.3832         estimate D2E/DX2                !
 ! A142  A(20,58,21)            99.7028         estimate D2E/DX2                !
 ! A143  A(20,58,22)           135.4385         estimate D2E/DX2                !
 ! A144  A(20,58,25)            71.0755         estimate D2E/DX2                !
 ! A145  A(20,58,27)           156.6627         estimate D2E/DX2                !
 ! A146  A(21,58,22)           104.3913         estimate D2E/DX2                !
 ! A147  A(21,58,23)            99.5683         estimate D2E/DX2                !
 ! A148  A(21,58,27)           102.8093         estimate D2E/DX2                !
 ! A149  A(22,58,23)           107.9794         estimate D2E/DX2                !
 ! A150  A(22,58,25)           133.3954         estimate D2E/DX2                !
 ! A151  A(23,58,25)            80.3086         estimate D2E/DX2                !
 ! A152  A(23,58,27)           137.0649         estimate D2E/DX2                !
 ! A153  A(25,58,27)           132.1831         estimate D2E/DX2                !
 ! A154  A(7,59,41)            123.273          estimate D2E/DX2                !
 ! A155  A(9,60,61)            109.4712         estimate D2E/DX2                !
 ! A156  A(9,60,62)            109.4712         estimate D2E/DX2                !
 ! A157  A(9,60,63)            109.4712         estimate D2E/DX2                !
 ! A158  A(61,60,62)           109.4713         estimate D2E/DX2                !
 ! A159  A(61,60,63)           109.4712         estimate D2E/DX2                !
 ! A160  A(62,60,63)           109.4712         estimate D2E/DX2                !
 ! A161  A(8,64,65)            109.4712         estimate D2E/DX2                !
 ! A162  A(8,64,66)            109.4712         estimate D2E/DX2                !
 ! A163  A(8,64,67)            109.4712         estimate D2E/DX2                !
 ! A164  A(65,64,66)           109.4713         estimate D2E/DX2                !
 ! A165  A(65,64,67)           109.4712         estimate D2E/DX2                !
 ! A166  A(66,64,67)           109.4712         estimate D2E/DX2                !
 ! A167  L(43,44,52,2,-1)      177.1411         estimate D2E/DX2                !
 ! A168  L(43,45,53,3,-1)      179.1647         estimate D2E/DX2                !
 ! A169  L(16,58,21,15,-1)     169.5452         estimate D2E/DX2                !
 ! A170  L(43,44,52,2,-2)      181.6624         estimate D2E/DX2                !
 ! A171  L(43,45,53,3,-2)      182.0391         estimate D2E/DX2                !
 ! A172  L(16,58,21,15,-2)     179.804          estimate D2E/DX2                !
 ! D1    D(6,1,2,3)             -0.5268         estimate D2E/DX2                !
 ! D2    D(6,1,2,10)           179.2614         estimate D2E/DX2                !
 ! D3    D(41,1,2,3)           177.9623         estimate D2E/DX2                !
 ! D4    D(41,1,2,10)           -2.2495         estimate D2E/DX2                !
 ! D5    D(2,1,6,5)              0.244          estimate D2E/DX2                !
 ! D6    D(2,1,6,14)          -179.0894         estimate D2E/DX2                !
 ! D7    D(41,1,6,5)          -178.2256         estimate D2E/DX2                !
 ! D8    D(41,1,6,14)            2.441          estimate D2E/DX2                !
 ! D9    D(2,1,41,42)           28.4169         estimate D2E/DX2                !
 ! D10   D(2,1,41,43)          -89.1683         estimate D2E/DX2                !
 ! D11   D(2,1,41,59)          151.1718         estimate D2E/DX2                !
 ! D12   D(6,1,41,42)         -153.1035         estimate D2E/DX2                !
 ! D13   D(6,1,41,43)           89.3112         estimate D2E/DX2                !
 ! D14   D(6,1,41,59)          -30.3486         estimate D2E/DX2                !
 ! D15   D(1,2,3,4)              0.4271         estimate D2E/DX2                !
 ! D16   D(1,2,3,11)           179.8992         estimate D2E/DX2                !
 ! D17   D(10,2,3,4)          -179.3597         estimate D2E/DX2                !
 ! D18   D(10,2,3,11)            0.1124         estimate D2E/DX2                !
 ! D19   D(2,3,4,5)             -0.0455         estimate D2E/DX2                !
 ! D20   D(2,3,4,12)           179.6289         estimate D2E/DX2                !
 ! D21   D(11,3,4,5)          -179.5155         estimate D2E/DX2                !
 ! D22   D(11,3,4,12)            0.1589         estimate D2E/DX2                !
 ! D23   D(3,4,5,6)             -0.2378         estimate D2E/DX2                !
 ! D24   D(3,4,5,13)           179.6245         estimate D2E/DX2                !
 ! D25   D(12,4,5,6)          -179.9122         estimate D2E/DX2                !
 ! D26   D(12,4,5,13)           -0.0499         estimate D2E/DX2                !
 ! D27   D(4,5,6,1)              0.1378         estimate D2E/DX2                !
 ! D28   D(4,5,6,14)           179.4633         estimate D2E/DX2                !
 ! D29   D(13,5,6,1)          -179.7251         estimate D2E/DX2                !
 ! D30   D(13,5,6,14)           -0.3995         estimate D2E/DX2                !
 ! D31   D(9,7,8,16)            17.5684         estimate D2E/DX2                !
 ! D32   D(9,7,8,64)          -166.3371         estimate D2E/DX2                !
 ! D33   D(56,7,8,16)          -97.3227         estimate D2E/DX2                !
 ! D34   D(56,7,8,64)           78.7718         estimate D2E/DX2                !
 ! D35   D(59,7,8,16)          138.934          estimate D2E/DX2                !
 ! D36   D(59,7,8,64)          -44.9715         estimate D2E/DX2                !
 ! D37   D(8,7,9,15)           -47.5817         estimate D2E/DX2                !
 ! D38   D(8,7,9,60)           137.249          estimate D2E/DX2                !
 ! D39   D(56,7,9,15)           69.6137         estimate D2E/DX2                !
 ! D40   D(56,7,9,60)         -105.5557         estimate D2E/DX2                !
 ! D41   D(59,7,9,15)         -170.9358         estimate D2E/DX2                !
 ! D42   D(59,7,9,60)           13.8949         estimate D2E/DX2                !
 ! D43   D(8,7,56,46)           37.5227         estimate D2E/DX2                !
 ! D44   D(8,7,56,54)          -85.8287         estimate D2E/DX2                !
 ! D45   D(8,7,56,57)          158.4723         estimate D2E/DX2                !
 ! D46   D(9,7,56,46)          -81.2139         estimate D2E/DX2                !
 ! D47   D(9,7,56,54)          155.4348         estimate D2E/DX2                !
 ! D48   D(9,7,56,57)           39.7357         estimate D2E/DX2                !
 ! D49   D(59,7,56,46)         161.4447         estimate D2E/DX2                !
 ! D50   D(59,7,56,54)          38.0933         estimate D2E/DX2                !
 ! D51   D(59,7,56,57)         -77.6057         estimate D2E/DX2                !
 ! D52   D(8,7,59,41)           80.7307         estimate D2E/DX2                !
 ! D53   D(9,7,59,41)         -156.5083         estimate D2E/DX2                !
 ! D54   D(56,7,59,41)         -41.3365         estimate D2E/DX2                !
 ! D55   D(7,8,16,58)          -12.7808         estimate D2E/DX2                !
 ! D56   D(64,8,16,58)         171.5294         estimate D2E/DX2                !
 ! D57   D(7,8,64,65)          -45.8565         estimate D2E/DX2                !
 ! D58   D(7,8,64,66)           74.1435         estimate D2E/DX2                !
 ! D59   D(7,8,64,67)         -165.8565         estimate D2E/DX2                !
 ! D60   D(16,8,64,65)         130.3578         estimate D2E/DX2                !
 ! D61   D(16,8,64,66)        -109.6422         estimate D2E/DX2                !
 ! D62   D(16,8,64,67)          10.3578         estimate D2E/DX2                !
 ! D63   D(7,9,15,58)           70.9715         estimate D2E/DX2                !
 ! D64   D(60,9,15,58)        -114.2617         estimate D2E/DX2                !
 ! D65   D(7,9,60,61)          -60.1415         estimate D2E/DX2                !
 ! D66   D(7,9,60,62)           59.8586         estimate D2E/DX2                !
 ! D67   D(7,9,60,63)          179.8585         estimate D2E/DX2                !
 ! D68   D(15,9,60,61)         124.855          estimate D2E/DX2                !
 ! D69   D(15,9,60,62)        -115.145          estimate D2E/DX2                !
 ! D70   D(15,9,60,63)           4.855          estimate D2E/DX2                !
 ! D71   D(9,15,58,16)         -44.7863         estimate D2E/DX2                !
 ! D72   D(9,15,58,17)         166.0271         estimate D2E/DX2                !
 ! D73   D(9,15,58,18)        -105.6734         estimate D2E/DX2                !
 ! D74   D(9,15,58,19)          33.4343         estimate D2E/DX2                !
 ! D75   D(9,15,58,20)          34.2298         estimate D2E/DX2                !
 ! D76   D(9,15,58,21)         135.4097         estimate D2E/DX2                !
 ! D77   D(9,15,58,22)        -116.7199         estimate D2E/DX2                !
 ! D78   D(9,15,58,23)          27.3831         estimate D2E/DX2                !
 ! D79   D(9,15,58,25)         105.0222         estimate D2E/DX2                !
 ! D80   D(9,15,58,27)        -122.3924         estimate D2E/DX2                !
 ! D81   D(8,16,58,15)          17.9612         estimate D2E/DX2                !
 ! D82   D(8,16,58,17)          87.6539         estimate D2E/DX2                !
 ! D83   D(8,16,58,18)         164.8751         estimate D2E/DX2                !
 ! D84   D(8,16,58,19)         -57.2201         estimate D2E/DX2                !
 ! D85   D(8,16,58,20)         -87.0197         estimate D2E/DX2                !
 ! D86   D(8,16,58,22)         134.3351         estimate D2E/DX2                !
 ! D87   D(8,16,58,23)        -116.9908         estimate D2E/DX2                !
 ! D88   D(8,16,58,25)         -48.188          estimate D2E/DX2                !
 ! D89   D(8,16,58,27)         103.1431         estimate D2E/DX2                !
 ! D90   D(19,20,31,38)        -43.6721         estimate D2E/DX2                !
 ! D91   D(19,20,31,39)       -163.7516         estimate D2E/DX2                !
 ! D92   D(19,20,31,40)         76.2396         estimate D2E/DX2                !
 ! D93   D(23,20,31,38)         66.5236         estimate D2E/DX2                !
 ! D94   D(23,20,31,39)        -53.5559         estimate D2E/DX2                !
 ! D95   D(23,20,31,40)       -173.5646         estimate D2E/DX2                !
 ! D96   D(24,20,31,38)       -169.146          estimate D2E/DX2                !
 ! D97   D(24,20,31,39)         70.7745         estimate D2E/DX2                !
 ! D98   D(24,20,31,40)        -49.2342         estimate D2E/DX2                !
 ! D99   D(58,20,31,38)         14.7837         estimate D2E/DX2                !
 ! D100  D(58,20,31,39)       -105.2958         estimate D2E/DX2                !
 ! D101  D(58,20,31,40)        134.6954         estimate D2E/DX2                !
 ! D102  D(24,20,58,15)         97.0306         estimate D2E/DX2                !
 ! D103  D(24,20,58,16)        169.0988         estimate D2E/DX2                !
 ! D104  D(24,20,58,17)         -7.1199         estimate D2E/DX2                !
 ! D105  D(24,20,58,18)       -107.8245         estimate D2E/DX2                !
 ! D106  D(24,20,58,21)         -0.7095         estimate D2E/DX2                !
 ! D107  D(24,20,58,22)       -122.9161         estimate D2E/DX2                !
 ! D108  D(24,20,58,25)         10.4718         estimate D2E/DX2                !
 ! D109  D(24,20,58,27)       -165.309          estimate D2E/DX2                !
 ! D110  D(31,20,58,15)        -88.1185         estimate D2E/DX2                !
 ! D111  D(31,20,58,16)        -16.0503         estimate D2E/DX2                !
 ! D112  D(31,20,58,17)        167.731          estimate D2E/DX2                !
 ! D113  D(31,20,58,18)         67.0264         estimate D2E/DX2                !
 ! D114  D(31,20,58,21)        174.1413         estimate D2E/DX2                !
 ! D115  D(31,20,58,22)         51.9348         estimate D2E/DX2                !
 ! D116  D(31,20,58,25)       -174.6773         estimate D2E/DX2                !
 ! D117  D(31,20,58,27)          9.5419         estimate D2E/DX2                !
 ! D118  D(17,21,30,35)         54.8218         estimate D2E/DX2                !
 ! D119  D(17,21,30,36)        -64.351          estimate D2E/DX2                !
 ! D120  D(17,21,30,37)        174.1522         estimate D2E/DX2                !
 ! D121  D(25,21,30,35)        -53.0398         estimate D2E/DX2                !
 ! D122  D(25,21,30,36)       -172.2126         estimate D2E/DX2                !
 ! D123  D(25,21,30,37)         66.2906         estimate D2E/DX2                !
 ! D124  D(26,21,30,35)       -179.3977         estimate D2E/DX2                !
 ! D125  D(26,21,30,36)         61.4294         estimate D2E/DX2                !
 ! D126  D(26,21,30,37)        -60.0674         estimate D2E/DX2                !
 ! D127  D(58,21,30,35)          1.3626         estimate D2E/DX2                !
 ! D128  D(58,21,30,36)       -117.8102         estimate D2E/DX2                !
 ! D129  D(58,21,30,37)        120.693          estimate D2E/DX2                !
 ! D130  D(26,21,58,15)          2.6869         estimate D2E/DX2                !
 ! D131  D(26,21,58,18)       -143.2691         estimate D2E/DX2                !
 ! D132  D(26,21,58,19)         75.3061         estimate D2E/DX2                !
 ! D133  D(26,21,58,20)        106.2254         estimate D2E/DX2                !
 ! D134  D(26,21,58,22)       -111.5772         estimate D2E/DX2                !
 ! D135  D(26,21,58,23)        136.9276         estimate D2E/DX2                !
 ! D136  D(26,21,58,27)        -79.9681         estimate D2E/DX2                !
 ! D137  D(30,21,58,15)       -178.6817         estimate D2E/DX2                !
 ! D138  D(30,21,58,18)         35.3623         estimate D2E/DX2                !
 ! D139  D(30,21,58,19)       -106.0625         estimate D2E/DX2                !
 ! D140  D(30,21,58,20)        -75.1432         estimate D2E/DX2                !
 ! D141  D(30,21,58,22)         67.0542         estimate D2E/DX2                !
 ! D142  D(30,21,58,23)        -44.441          estimate D2E/DX2                !
 ! D143  D(30,21,58,27)         98.6633         estimate D2E/DX2                !
 ! D144  D(18,22,29,32)        129.6593         estimate D2E/DX2                !
 ! D145  D(18,22,29,33)          9.0198         estimate D2E/DX2                !
 ! D146  D(18,22,29,34)       -110.764          estimate D2E/DX2                !
 ! D147  D(27,22,29,32)         19.5144         estimate D2E/DX2                !
 ! D148  D(27,22,29,33)       -101.1252         estimate D2E/DX2                !
 ! D149  D(27,22,29,34)        139.091          estimate D2E/DX2                !
 ! D150  D(28,22,29,32)       -105.9058         estimate D2E/DX2                !
 ! D151  D(28,22,29,33)        133.4547         estimate D2E/DX2                !
 ! D152  D(28,22,29,34)         13.6709         estimate D2E/DX2                !
 ! D153  D(58,22,29,32)         76.4097         estimate D2E/DX2                !
 ! D154  D(58,22,29,33)        -44.2298         estimate D2E/DX2                !
 ! D155  D(58,22,29,34)       -164.0136         estimate D2E/DX2                !
 ! D156  D(28,22,58,15)         79.9745         estimate D2E/DX2                !
 ! D157  D(28,22,58,16)         11.6938         estimate D2E/DX2                !
 ! D158  D(28,22,58,17)        167.6714         estimate D2E/DX2                !
 ! D159  D(28,22,58,19)        -12.3385         estimate D2E/DX2                !
 ! D160  D(28,22,58,20)        -57.4935         estimate D2E/DX2                !
 ! D161  D(28,22,58,21)       -178.0591         estimate D2E/DX2                !
 ! D162  D(28,22,58,23)        -72.7701         estimate D2E/DX2                !
 ! D163  D(28,22,58,25)       -166.3974         estimate D2E/DX2                !
 ! D164  D(29,22,58,15)       -103.5277         estimate D2E/DX2                !
 ! D165  D(29,22,58,16)       -171.8084         estimate D2E/DX2                !
 ! D166  D(29,22,58,17)        -15.8308         estimate D2E/DX2                !
 ! D167  D(29,22,58,19)        164.1593         estimate D2E/DX2                !
 ! D168  D(29,22,58,20)        119.0043         estimate D2E/DX2                !
 ! D169  D(29,22,58,21)         -1.5613         estimate D2E/DX2                !
 ! D170  D(29,22,58,23)        103.7277         estimate D2E/DX2                !
 ! D171  D(29,22,58,25)         10.1003         estimate D2E/DX2                !
 ! D172  D(1,41,43,44)          62.4646         estimate D2E/DX2                !
 ! D173  D(1,41,43,45)         -57.701          estimate D2E/DX2                !
 ! D174  D(1,41,43,54)        -176.8492         estimate D2E/DX2                !
 ! D175  D(42,41,43,44)        -58.4401         estimate D2E/DX2                !
 ! D176  D(42,41,43,45)       -178.6056         estimate D2E/DX2                !
 ! D177  D(42,41,43,54)         62.2461         estimate D2E/DX2                !
 ! D178  D(59,41,43,44)       -177.3973         estimate D2E/DX2                !
 ! D179  D(59,41,43,45)         62.4371         estimate D2E/DX2                !
 ! D180  D(59,41,43,54)        -56.7111         estimate D2E/DX2                !
 ! D181  D(1,41,59,7)          174.3926         estimate D2E/DX2                !
 ! D182  D(42,41,59,7)         -63.5748         estimate D2E/DX2                !
 ! D183  D(43,41,59,7)          50.7675         estimate D2E/DX2                !
 ! D184  D(41,43,54,55)        -84.1434         estimate D2E/DX2                !
 ! D185  D(41,43,54,56)         63.2456         estimate D2E/DX2                !
 ! D186  D(44,43,54,55)         36.5531         estimate D2E/DX2                !
 ! D187  D(44,43,54,56)       -176.0579         estimate D2E/DX2                !
 ! D188  D(45,43,54,55)        156.6651         estimate D2E/DX2                !
 ! D189  D(45,43,54,56)        -55.9459         estimate D2E/DX2                !
 ! D190  D(49,46,48,47)        179.094          estimate D2E/DX2                !
 ! D191  D(49,46,48,51)          0.1947         estimate D2E/DX2                !
 ! D192  D(56,46,48,47)         -4.2958         estimate D2E/DX2                !
 ! D193  D(56,46,48,51)        176.8049         estimate D2E/DX2                !
 ! D194  D(48,46,56,7)        -100.7025         estimate D2E/DX2                !
 ! D195  D(48,46,56,54)         23.262          estimate D2E/DX2                !
 ! D196  D(48,46,56,57)        141.8294         estimate D2E/DX2                !
 ! D197  D(49,46,56,7)          76.0466         estimate D2E/DX2                !
 ! D198  D(49,46,56,54)       -159.9889         estimate D2E/DX2                !
 ! D199  D(49,46,56,57)        -41.4216         estimate D2E/DX2                !
 ! D200  D(50,47,48,46)        173.3304         estimate D2E/DX2                !
 ! D201  D(50,47,48,51)         -7.7512         estimate D2E/DX2                !
 ! D202  D(55,47,48,46)         -8.4602         estimate D2E/DX2                !
 ! D203  D(55,47,48,51)        170.4581         estimate D2E/DX2                !
 ! D204  D(48,47,55,54)         -1.3715         estimate D2E/DX2                !
 ! D205  D(50,47,55,54)        176.9114         estimate D2E/DX2                !
 ! D206  D(43,54,55,47)        169.1844         estimate D2E/DX2                !
 ! D207  D(56,54,55,47)         25.2151         estimate D2E/DX2                !
 ! D208  D(43,54,56,7)         -52.9998         estimate D2E/DX2                !
 ! D209  D(43,54,56,46)       -178.641          estimate D2E/DX2                !
 ! D210  D(43,54,56,57)         60.8565         estimate D2E/DX2                !
 ! D211  D(55,54,56,7)          90.6269         estimate D2E/DX2                !
 ! D212  D(55,54,56,46)        -35.0143         estimate D2E/DX2                !
 ! D213  D(55,54,56,57)       -155.5168         estimate D2E/DX2                !
 --------------------------------------------------------------------------------
 Trust Radius=3.00D-01 FncErr=1.00D-07 GrdErr=1.00D-06 EigMax=2.50D+02 EigMin=1.00D-04
 Number of steps in this run=    402 maximum allowed number of steps=    402.
 GradGradGradGradGradGradGradGradGradGradGradGradGradGradGradGradGradGrad

 Leave Link  103 at Thu May  1 00:17:56 2025, MaxMem= 82678120448 cpu:               1.9 elap:               0.1
 (Enter /sysapps/ubuntu-applications/gaussian-new/avx/g16/l202.exe)
 Stoichiometry    C22H16F9LuN4O12S3
 Framework group  C1[X(C22H16F9LuN4O12S3)]
 Deg. of freedom   195
 Full point group                 C1      NOp   1
 Largest Abelian subgroup         C1      NOp   1
 Largest concise Abelian subgroup C1      NOp   1
                         Standard orientation:                         
 ---------------------------------------------------------------------
 Center     Atomic      Atomic             Coordinates (Angstroms)
 Number     Number       Type             X           Y           Z
 ---------------------------------------------------------------------
      1          6           0        5.628500   -0.733534    0.145068
      2          6           0        6.740031   -0.778039   -0.705600
      3          6           0        7.764472   -1.695097   -0.467940
      4          6           0        7.676736   -2.575089    0.613912
      5          6           0        6.564181   -2.536584    1.458402
      6          6           0        5.539594   -1.617091    1.228324
      7          6           0        2.144957    0.507875    0.403310
      8          6           0        1.460873    0.551964   -0.968121
      9          6           0        1.225044   -0.098389    1.450008
     10          1           0        6.797741   -0.093607   -1.556781
     11          1           0        8.629003   -1.728100   -1.134354
     12          1           0        8.475934   -3.297059    0.796304
     13          1           0        6.491623   -3.228040    2.300706
     14          1           0        4.662153   -1.585789    1.878206
     15          8           0        0.049893    0.278007    1.549128
     16          8           0        0.253385    0.449827   -1.163045
     17          8           0       -3.245310    0.476943    1.511095
     18          8           0       -2.787527    0.802807   -1.601022
     19          8           0       -0.039123   -2.068820    0.121505
     20         16           0       -0.817721   -2.861400   -0.876850
     21         16           0       -3.580302   -0.886263    2.038388
     22         16           0       -2.594461    2.236483   -1.193283
     23          8           0       -1.846941   -1.911414   -1.416010
     24          8           0       -1.258531   -4.178784   -0.503795
     25          8           0       -2.496011   -1.766280    1.497037
     26          8           0       -3.938826   -1.013149    3.422418
     27          8           0       -1.694350    2.180711   -0.005197
     28          8           0       -2.268815    3.178165   -2.232926
     29          6           0       -4.260705    2.750536   -0.521240
     30          6           0       -5.036117   -1.351509    1.013483
     31          6           0        0.341407   -3.112215   -2.288080
     32          9           0       -4.097063    3.310664    0.658892
     33          9           0       -5.047343    1.698487   -0.412533
     34          9           0       -4.797244    3.617845   -1.355903
     35          9           0       -4.671737   -1.237587   -0.257418
     36          9           0       -6.037299   -0.535241    1.264829
     37          9           0       -5.388340   -2.593705    1.266095
     38          9           0        0.980276   -1.982765   -2.553135
     39          9           0       -0.346108   -3.488428   -3.346631
     40          9           0        1.213892   -4.044131   -1.963709
     41          6           0        4.554352    0.292086   -0.097793
     42          1           0        4.504345    0.554017   -1.167351
     43          6           0        4.798196    1.651315    0.632008
     44          6           0        6.037116    2.283450    0.142573
     45          6           0        4.917631    1.418479    2.089529
     46          6           0        1.288947    2.950433    0.538412
     47          6           0        2.697425    3.791613   -1.244346
     48          6           0        1.431594    3.766989   -0.519157
     49          1           0        0.368278    2.906909    1.120694
     50          1           0        2.807273    4.362719   -2.169397
     51          1           0        0.621145    4.426518   -0.834907
     52          7           0        7.040663    2.722096   -0.228626
     53          7           0        4.992607    1.199188    3.222879
     54          7           0        3.648783    2.511288    0.367439
     55          7           0        3.743031    3.176088   -0.815312
     56          6           0        2.399634    2.007369    0.896854
     57          1           0        2.508046    1.927752    1.992082
     58         71           0       -1.562514   -0.176206    0.055118
     59          8           0        3.325180   -0.229391    0.372035
     60          6           0        1.806465   -0.976606    2.302799
     61          1           0        2.210441   -1.797829    1.748457
     62          1           0        2.592651   -0.486573    2.838223
     63          1           0        1.075363   -1.338813    2.995039
     64          6           0        2.374817    0.813770   -1.997726
     65          1           0        3.014633    1.621636   -1.709822
     66          1           0        2.964415   -0.059915   -2.181981
     67          1           0        1.843220    1.079484   -2.887502
 ---------------------------------------------------------------------
 Rotational constants (GHZ):           0.0868563           0.0360916           0.0311430
 Leave Link  202 at Thu May  1 00:17:56 2025, MaxMem= 82678120448 cpu:               3.3 elap:               0.2
 (Enter /sysapps/ubuntu-applications/gaussian-new/avx/g16/l301.exe)
 General basis read from cards:  (5D, 7F)
 Centers:      10     11     12     13     14     42     49     50     51     57
 Centers:      61     62     63     65     66     67
 S 3 1.00
     Exponent=  1.3010701000D+01 Coefficients=  1.9682158000D-02
     Exponent=  1.9622572000D+00 Coefficients=  1.3796524000D-01
     Exponent=  4.4453796000D-01 Coefficients=  4.7831935000D-01
 S 1 1.00
     Exponent=  1.2194962000D-01 Coefficients=  1.0000000000D+00
 P 1 1.00
     Exponent=  8.0000000000D-01 Coefficients=  1.0000000000D+00
 ****
 Centers:       1      2      3      4      5      6      7      8      9     29
 Centers:      30     31     41     43     44     45     46     47     48     56
 Centers:      60     64
 S 5 1.00
     Exponent=  1.2384016938D+03 Coefficients=  5.4568832082D-03
     Exponent=  1.8629004992D+02 Coefficients=  4.0638409211D-02
     Exponent=  4.2251176346D+01 Coefficients=  1.8025593888D-01
     Exponent=  1.1676557932D+01 Coefficients=  4.6315121755D-01
     Exponent=  3.5930506482D+00 Coefficients=  4.4087173314D-01
 S 1 1.00
     Exponent=  4.0245147363D-01 Coefficients=  1.0000000000D+00
 S 1 1.00
     Exponent=  1.3090182668D-01 Coefficients=  1.0000000000D+00
 P 3 1.00
     Exponent=  9.4680970621D+00 Coefficients=  3.8387871728D-02
     Exponent=  2.0103545142D+00 Coefficients=  2.1117025112D-01
     Exponent=  5.4771004707D-01 Coefficients=  5.1328172114D-01
 P 1 1.00
     Exponent=  1.5268613795D-01 Coefficients=  1.0000000000D+00
 D 1 1.00
     Exponent=  8.0000000000D-01 Coefficients=  1.0000000000D+00
 ****
 Centers:      52     53     54     55
 S 5 1.00
     Exponent=  1.7128415853D+03 Coefficients= -5.3934125305D-03
     Exponent=  2.5764812677D+02 Coefficients= -4.0221581118D-02
     Exponent=  5.8458245853D+01 Coefficients= -1.7931144990D-01
     Exponent=  1.6198367905D+01 Coefficients= -4.6376317823D-01
     Exponent=  5.0052600809D+00 Coefficients= -4.4171422662D-01
 S 1 1.00
     Exponent=  5.8731856571D-01 Coefficients=  1.0000000000D+00
 S 1 1.00
     Exponent=  1.8764592253D-01 Coefficients=  1.0000000000D+00
 P 3 1.00
     Exponent=  1.3571470233D+01 Coefficients= -4.0072398852D-02
     Exponent=  2.9257372874D+00 Coefficients= -2.1807045028D-01
     Exponent=  7.9927750754D-01 Coefficients= -5.1294466049D-01
 P 1 1.00
     Exponent=  2.1954348034D-01 Coefficients=  1.0000000000D+00
 D 1 1.00
     Exponent=  1.0000000000D+00 Coefficients=  1.0000000000D+00
 ****
 Centers:      15     16     17     18     19     23     24     25     26     27
 Centers:      28     59
 S 5 1.00
     Exponent=  2.2661767785D+03 Coefficients= -5.3431809926D-03
     Exponent=  3.4087010191D+02 Coefficients= -3.9890039230D-02
     Exponent=  7.7363135167D+01 Coefficients= -1.7853911985D-01
     Exponent=  2.1479644940D+01 Coefficients= -4.6427684959D-01
     Exponent=  6.6589433124D+00 Coefficients= -4.4309745172D-01
 S 1 1.00
     Exponent=  8.0975975668D-01 Coefficients=  1.0000000000D+00
 S 1 1.00
     Exponent=  2.5530772234D-01 Coefficients=  1.0000000000D+00
 P 3 1.00
     Exponent=  1.7721504317D+01 Coefficients=  4.3394573193D-02
     Exponent=  3.8635505440D+00 Coefficients=  2.3094120765D-01
     Exponent=  1.0480920883D+00 Coefficients=  5.1375311064D-01
 P 1 1.00
     Exponent=  2.7641544411D-01 Coefficients=  1.0000000000D+00
 D 1 1.00
     Exponent=  1.2000000000D+00 Coefficients=  1.0000000000D+00
 ****
 Centers:      32     33     34     35     36     37     38     39     40
 S 5 1.00
     Exponent=  2.8948325990D+03 Coefficients= -5.3408255515D-03
     Exponent=  4.3541939120D+02 Coefficients= -3.9904258866D-02
     Exponent=  9.8843328866D+01 Coefficients= -1.7912768038D-01
     Exponent=  2.7485198001D+01 Coefficients= -4.6758090825D-01
     Exponent=  8.5405498171D+00 Coefficients= -4.4653131020D-01
 S 1 1.00
     Exponent=  1.0654578038D+00 Coefficients=  1.0000000000D+00
 S 1 1.00
     Exponent=  3.3247346748D-01 Coefficients=  1.0000000000D+00
 P 3 1.00
     Exponent=  2.2696633924D+01 Coefficients= -4.5212874436D-02
     Exponent=  4.9872339257D+00 Coefficients= -2.3754317067D-01
     Exponent=  1.3491613954D+00 Coefficients= -5.1287353587D-01
 P 1 1.00
     Exponent=  3.4829881977D-01 Coefficients=  1.0000000000D+00
 D 1 1.00
     Exponent=  1.4000000000D+00 Coefficients=  1.0000000000D+00
 ****
 Centers:      20     21     22
 S 5 1.00
     Exponent=  9.1849303010D+03 Coefficients= -2.2294387756D-03
     Exponent=  1.3815105503D+03 Coefficients= -1.6683029937D-02
     Exponent=  3.1387147580D+02 Coefficients= -7.5262436116D-02
     Exponent=  8.8053870623D+01 Coefficients= -1.9376827038D-01
     Exponent=  2.7039914905D+01 Coefficients= -1.7718020803D-01
 S 3 1.00
     Exponent=  4.5648731303D+01 Coefficients= -1.0736062573D-01
     Exponent=  4.9664522326D+00 Coefficients=  6.5066293018D-01
     Exponent=  2.0116242047D+00 Coefficients=  5.9712155354D-01
 S 1 1.00
     Exponent=  3.5661077013D-01 Coefficients=  1.0000000000D+00
 S 1 1.00
     Exponent=  1.3507221477D-01 Coefficients=  1.0000000000D+00
 P 5 1.00
     Exponent=  2.6198233439D+02 Coefficients= -9.2729929822D-03
     Exponent=  6.1306894736D+01 Coefficients= -6.6547669241D-02
     Exponent=  1.9103729887D+01 Coefficients= -2.4828595903D-01
     Exponent=  6.6567720378D+00 Coefficients= -4.8703847402D-01
     Exponent=  2.3959635161D+00 Coefficients= -3.9337850312D-01
 P 1 1.00
     Exponent=  6.1776161679D-01 Coefficients=  1.0000000000D+00
 P 1 1.00
     Exponent=  1.6993376871D-01 Coefficients=  1.0000000000D+00
 D 1 1.00
     Exponent=  5.5000000000D-01 Coefficients=  1.0000000000D+00
 ****
 Centers:      58
 S 5 1.00
     Exponent=  9.5169767000D+04 Coefficients=  2.2000000000D-05
     Exponent=  1.5488403000D+04 Coefficients=  1.4500000000D-04
     Exponent=  3.7762335000D+03 Coefficients=  6.5100000000D-04
     Exponent=  1.0790501000D+03 Coefficients=  2.0380000000D-03
     Exponent=  2.6895380000D+02 Coefficients=  5.1270000000D-03
 S 1 1.00
     Exponent=  6.3467900000D+01 Coefficients=  1.0000000000D+00
 S 1 1.00
     Exponent=  4.5133200000D+01 Coefficients=  1.0000000000D+00
 S 1 1.00
     Exponent=  2.1456800000D+01 Coefficients=  1.0000000000D+00
 S 1 1.00
     Exponent=  5.3483000000D+00 Coefficients=  1.0000000000D+00
 S 1 1.00
     Exponent=  2.6778000000D+00 Coefficients=  1.0000000000D+00
 S 1 1.00
     Exponent=  1.0287000000D+00 Coefficients=  1.0000000000D+00
 S 1 1.00
     Exponent=  4.4080000000D-01 Coefficients=  1.0000000000D+00
 S 1 1.00
     Exponent=  7.9100000000D-02 Coefficients=  1.0000000000D+00
 S 1 1.00
     Exponent=  3.1300000000D-02 Coefficients=  1.0000000000D+00
 P 3 1.00
     Exponent=  1.2333733920D+01 Coefficients= -1.5313031066D-01
     Exponent=  1.1080331415D+01 Coefficients= -2.0300664852D-01
     Exponent=  2.0341747228D+00 Coefficients= -1.9458361263D-01
 P 6 1.00
     Exponent=  1.5005317313D+03 Coefficients= -1.0192569555D-03
     Exponent=  3.8239748937D+02 Coefficients= -5.9476212135D-03
     Exponent=  1.3299969628D+02 Coefficients= -1.6265160929D-02
     Exponent=  4.6110032419D+01 Coefficients= -3.5623845839D-02
     Exponent=  1.5583529011D+01 Coefficients=  2.3709171074D-01
     Exponent=  5.7856677022D+00 Coefficients= -3.0670977844D-01
 P 1 1.00
     Exponent=  3.7823361008D+00 Coefficients=  1.0000000000D+00
 P 1 1.00
     Exponent=  1.3682592248D+00 Coefficients=  1.0000000000D+00
 P 1 1.00
     Exponent=  5.7288205601D-01 Coefficients=  1.0000000000D+00
 P 1 1.00
     Exponent=  2.2793165135D-01 Coefficients=  1.0000000000D+00
 P 1 1.00
     Exponent=  8.1403917986D-02 Coefficients=  1.0000000000D+00
 P 1 1.00
     Exponent=  2.9091071778D-02 Coefficients=  1.0000000000D+00
 D 6 1.00
     Exponent=  4.8452750000D+02 Coefficients=  2.2860000000D-03
     Exponent=  1.4666550000D+02 Coefficients=  1.8629000000D-02
     Exponent=  5.6377900000D+01 Coefficients=  7.4088000000D-02
     Exponent=  2.3671100000D+01 Coefficients=  1.6155400000D-01
     Exponent=  9.4401000000D+00 Coefficients=  3.0809100000D-01
     Exponent=  4.3712000000D+00 Coefficients=  4.4833400000D-01
 D 1 1.00
     Exponent=  1.9580000000D+00 Coefficients=  1.0000000000D+00
 D 1 1.00
     Exponent=  7.2720000000D-01 Coefficients=  1.0000000000D+00
 D 1 1.00
     Exponent=  2.4600000000D-01 Coefficients=  1.0000000000D+00
 D 1 1.00
     Exponent=  7.4400000000D-02 Coefficients=  1.0000000000D+00
 F 5 1.00
     Exponent=  1.7515590000D+02 Coefficients=  4.1020000000D-03
     Exponent=  6.2890900000D+01 Coefficients=  3.9086000000D-02
     Exponent=  2.8362400000D+01 Coefficients=  1.4704400000D-01
     Exponent=  1.3247800000D+01 Coefficients=  2.7109200000D-01
     Exponent=  6.1440000000D+00 Coefficients=  3.4566500000D-01
 F 1 1.00
     Exponent=  2.7623000000D+00 Coefficients=  1.0000000000D+00
 F 1 1.00
     Exponent=  1.1574000000D+00 Coefficients=  1.0000000000D+00
 F 1 1.00
     Exponent=  4.2440000000D-01 Coefficients=  1.0000000000D+00
 G 1 1.00
     Exponent=  7.0090000000D-01 Coefficients=  1.0000000000D+00
 ****
 ======================================================================================================
                                       Pseudopotential Parameters
 ======================================================================================================
  Center     Atomic      Valence      Angular      Power
  Number     Number     Electrons     Momentum     of R      Exponent        Coefficient   SO-Coeffient
 ======================================================================================================
    1          6
                                   No pseudopotential on this center.
    2          6
                                   No pseudopotential on this center.
    3          6
                                   No pseudopotential on this center.
    4          6
                                   No pseudopotential on this center.
    5          6
                                   No pseudopotential on this center.
    6          6
                                   No pseudopotential on this center.
    7          6
                                   No pseudopotential on this center.
    8          6
                                   No pseudopotential on this center.
    9          6
                                   No pseudopotential on this center.
   10          1
                                   No pseudopotential on this center.
   11          1
                                   No pseudopotential on this center.
   12          1
                                   No pseudopotential on this center.
   13          1
                                   No pseudopotential on this center.
   14          1
                                   No pseudopotential on this center.
   15          8
                                   No pseudopotential on this center.
   16          8
                                   No pseudopotential on this center.
   17          8
                                   No pseudopotential on this center.
   18          8
                                   No pseudopotential on this center.
   19          8
                                   No pseudopotential on this center.
   20         16
                                   No pseudopotential on this center.
   21         16
                                   No pseudopotential on this center.
   22         16
                                   No pseudopotential on this center.
   23          8
                                   No pseudopotential on this center.
   24          8
                                   No pseudopotential on this center.
   25          8
                                   No pseudopotential on this center.
   26          8
                                   No pseudopotential on this center.
   27          8
                                   No pseudopotential on this center.
   28          8
                                   No pseudopotential on this center.
   29          6
                                   No pseudopotential on this center.
   30          6
                                   No pseudopotential on this center.
   31          6
                                   No pseudopotential on this center.
   32          9
                                   No pseudopotential on this center.
   33          9
                                   No pseudopotential on this center.
   34          9
                                   No pseudopotential on this center.
   35          9
                                   No pseudopotential on this center.
   36          9
                                   No pseudopotential on this center.
   37          9
                                   No pseudopotential on this center.
   38          9
                                   No pseudopotential on this center.
   39          9
                                   No pseudopotential on this center.
   40          9
                                   No pseudopotential on this center.
   41          6
                                   No pseudopotential on this center.
   42          1
                                   No pseudopotential on this center.
   43          6
                                   No pseudopotential on this center.
   44          6
                                   No pseudopotential on this center.
   45          6
                                   No pseudopotential on this center.
   46          6
                                   No pseudopotential on this center.
   47          6
                                   No pseudopotential on this center.
   48          6
                                   No pseudopotential on this center.
   49          1
                                   No pseudopotential on this center.
   50          1
                                   No pseudopotential on this center.
   51          1
                                   No pseudopotential on this center.
   52          7
                                   No pseudopotential on this center.
   53          7
                                   No pseudopotential on this center.
   54          7
                                   No pseudopotential on this center.
   55          7
                                   No pseudopotential on this center.
   56          6
                                   No pseudopotential on this center.
   57          1
                                   No pseudopotential on this center.
   58         71           43
                                      H and up 
                                                     2        1.0000000        0.00000000    0.00000000
                                      S - H
                                                     2       35.1620970      989.99558400    0.00000000
                                      P - H
                                                     2       19.4644020      278.86565200    0.00000000
                                      D - H
                                                     2       10.0068650       71.00917800    0.00000000
                                      F - H
                                                     2       23.5179320      -47.40589000    0.00000000
                                      G - H
                                                     2       29.4122380      -35.55714600    0.00000000
   59          8
                                   No pseudopotential on this center.
   60          6
                                   No pseudopotential on this center.
   61          1
                                   No pseudopotential on this center.
   62          1
                                   No pseudopotential on this center.
   63          1
                                   No pseudopotential on this center.
   64          6
                                   No pseudopotential on this center.
   65          1
                                   No pseudopotential on this center.
   66          1
                                   No pseudopotential on this center.
   67          1
                                   No pseudopotential on this center.
 ======================================================================================================
 Ernie: Thresh=  0.10000D-02 Tol=  0.10000D-05 Strict=F.
 There are   961 symmetry adapted cartesian basis functions of A   symmetry.
 There are   888 symmetry adapted basis functions of A   symmetry.
   888 basis functions,  1612 primitive gaussians,   961 cartesian basis functions
   222 alpha electrons      222 beta electrons
       nuclear repulsion energy     11071.1962696523 Hartrees.
 IExCor= 7252 DFT=T Ex+Corr=MN15 ExCW=0 ScaHFX=  0.440000
 ScaDFX=  1.000000  1.000000  1.000000  1.000000 ScalE2=  1.000000  1.000000
 IRadAn=      5 IRanWt=     -1 IRanGd=            0 ICorTp=0 IEmpDi=  4
 NAtoms=   67 NActive=   67 NUniq=   67 SFac= 1.00D+00 NAtFMM=   60 NAOKFM=T Big=T
 Integral buffers will be    131072 words long.
 Raffenetti 2 integral format.
 Two-electron integral symmetry is turned on.
 ------------------------------------------------------------------------------
 Polarizable Continuum Model (PCM)
 =================================
 Model                : PCM.
 Atomic radii         : SMD-Coulomb.
 Polarization charges : Total charges.
 Charge compensation  : None.
 Solution method      : On-the-fly selection.
 Cavity type          : VdW (van der Waals Surface) (Alpha=1.000).
 Cavity algorithm     : GePol (No added spheres)
                        Default sphere list used, NSphG=   67.
                        Lebedev-Laikov grids with approx.  5.0 points / Ang**2.
                        Smoothing algorithm: York/Karplus (Gamma=1.0000).
                        Polarization charges: spherical gaussians, with
                                              point-specific exponents (IZeta= 3).
                        Self-potential: point-specific (ISelfS= 7).
                        Self-field    : sphere-specific E.n sum rule (ISelfD= 2).
 1st derivatives      : Analytical E(r).r(x)/FMM algorithm (CHGder, D1EAlg=3).
                        Cavity 1st derivative terms included.
 Solvent              : DiChloroEthane, Eps=  10.125000 Eps(inf)=   2.087447
 ------------------------------------------------------------------------------
 GePol: Number of generator spheres                  =      67
 GePol: Total number of spheres                      =      67
 GePol: Number of exposed spheres                    =      66 ( 98.51%)
 GePol: Number of points                             =    4675
 GePol: Average weight of points                     =       0.13
 GePol: Minimum weight of points                     =   0.63D-11
 GePol: Maximum weight of points                     =    0.21501
 GePol: Number of points with low weight             =     258
 GePol: Fraction of low-weight points (<1% of avg)   =       5.52%
 GePol: Cavity surface area                          =    609.187 Ang**2
 GePol: Cavity volume                                =    732.975 Ang**3
[...]
     5 C(13)  Bbb     0.0000     0.000     0.000     0.000 -0.0000  1.0000  0.0000
              Bcc     0.0000     0.000     0.000     0.000  0.0000  0.0000  1.0000
 
              Baa     0.0000     0.000     0.000     0.000  1.0000  0.0000  0.0000
     6 C(13)  Bbb     0.0000     0.000     0.000     0.000 -0.0000  1.0000  0.0000
              Bcc     0.0000     0.000     0.000     0.000  0.0000  0.0000  1.0000
 
              Baa     0.0000     0.000     0.000     0.000  1.0000  0.0000  0.0000
     7 C(13)  Bbb     0.0000     0.000     0.000     0.000 -0.0000  1.0000  0.0000
              Bcc     0.0000     0.000     0.000     0.000  0.0000  0.0000  1.0000
 
              Baa     0.0000     0.000     0.000     0.000  1.0000  0.0000  0.0000
     8 C(13)  Bbb     0.0000     0.000     0.000     0.000 -0.0000  1.0000  0.0000
              Bcc     0.0000     0.000     0.000     0.000  0.0000  0.0000  1.0000
 
              Baa     0.0000     0.000     0.000     0.000  1.0000  0.0000  0.0000
     9 C(13)  Bbb     0.0000     0.000     0.000     0.000 -0.0000  1.0000  0.0000
              Bcc     0.0000     0.000     0.000     0.000  0.0000  0.0000  1.0000
 
              Baa     0.0000     0.000     0.000     0.000  1.0000  0.0000  0.0000
    10 H(1)   Bbb     0.0000     0.000     0.000     0.000 -0.0000  1.0000  0.0000
              Bcc     0.0000     0.000     0.000     0.000  0.0000  0.0000  1.0000
 
              Baa     0.0000     0.000     0.000     0.000  1.0000  0.0000  0.0000
    11 H(1)   Bbb     0.0000     0.000     0.000     0.000 -0.0000  1.0000  0.0000
              Bcc     0.0000     0.000     0.000     0.000  0.0000  0.0000  1.0000
 
              Baa     0.0000     0.000     0.000     0.000  1.0000  0.0000  0.0000
    12 H(1)   Bbb     0.0000     0.000     0.000     0.000 -0.0000  1.0000  0.0000
              Bcc     0.0000     0.000     0.000     0.000  0.0000  0.0000  1.0000
 
              Baa     0.0000     0.000     0.000     0.000  1.0000  0.0000  0.0000
    13 H(1)   Bbb     0.0000     0.000     0.000     0.000 -0.0000  1.0000  0.0000
              Bcc     0.0000     0.000     0.000     0.000  0.0000  0.0000  1.0000
 
              Baa     0.0000     0.000     0.000     0.000  1.0000  0.0000  0.0000
    14 H(1)   Bbb     0.0000     0.000     0.000     0.000 -0.0000  1.0000  0.0000
              Bcc     0.0000     0.000     0.000     0.000  0.0000  0.0000  1.0000
 
              Baa     0.0000    -0.000    -0.000    -0.000  1.0000  0.0000  0.0000
    15 O(17)  Bbb     0.0000    -0.000    -0.000    -0.000 -0.0000  1.0000  0.0000
              Bcc     0.0000    -0.000    -0.000    -0.000  0.0000  0.0000  1.0000
 
              Baa     0.0000    -0.000    -0.000    -0.000  1.0000  0.0000  0.0000
    16 O(17)  Bbb     0.0000    -0.000    -0.000    -0.000 -0.0000  1.0000  0.0000
              Bcc     0.0000    -0.000    -0.000    -0.000  0.0000  0.0000  1.0000
 
              Baa     0.0000    -0.000    -0.000    -0.000  1.0000  0.0000  0.0000
    17 O(17)  Bbb     0.0000    -0.000    -0.000    -0.000 -0.0000  1.0000  0.0000
              Bcc     0.0000    -0.000    -0.000    -0.000  0.0000  0.0000  1.0000
 
              Baa     0.0000    -0.000    -0.000    -0.000  1.0000  0.0000  0.0000
    18 O(17)  Bbb     0.0000    -0.000    -0.000    -0.000 -0.0000  1.0000  0.0000
              Bcc     0.0000    -0.000    -0.000    -0.000  0.0000  0.0000  1.0000
 
              Baa     0.0000    -0.000    -0.000    -0.000  1.0000  0.0000  0.0000
    19 O(17)  Bbb     0.0000    -0.000    -0.000    -0.000 -0.0000  1.0000  0.0000
              Bcc     0.0000    -0.000    -0.000    -0.000  0.0000  0.0000  1.0000
 
              Baa     0.0000     0.000     0.000     0.000  1.0000  0.0000  0.0000
    20 S(33)  Bbb     0.0000     0.000     0.000     0.000 -0.0000  1.0000  0.0000
              Bcc     0.0000     0.000     0.000     0.000  0.0000  0.0000  1.0000
 
              Baa     0.0000     0.000     0.000     0.000  1.0000  0.0000  0.0000
    21 S(33)  Bbb     0.0000     0.000     0.000     0.000 -0.0000  1.0000  0.0000
              Bcc     0.0000     0.000     0.000     0.000  0.0000  0.0000  1.0000
 
              Baa     0.0000     0.000     0.000     0.000  1.0000  0.0000  0.0000
    22 S(33)  Bbb     0.0000     0.000     0.000     0.000 -0.0000  1.0000  0.0000
              Bcc     0.0000     0.000     0.000     0.000  0.0000  0.0000  1.0000
 
              Baa     0.0000    -0.000    -0.000    -0.000  1.0000  0.0000  0.0000
    23 O(17)  Bbb     0.0000    -0.000    -0.000    -0.000 -0.0000  1.0000  0.0000
              Bcc     0.0000    -0.000    -0.000    -0.000  0.0000  0.0000  1.0000
 
              Baa     0.0000    -0.000    -0.000    -0.000  1.0000  0.0000  0.0000
    24 O(17)  Bbb     0.0000    -0.000    -0.000    -0.000 -0.0000  1.0000  0.0000
              Bcc     0.0000    -0.000    -0.000    -0.000  0.0000  0.0000  1.0000
 
              Baa     0.0000    -0.000    -0.000    -0.000  1.0000  0.0000  0.0000
    25 O(17)  Bbb     0.0000    -0.000    -0.000    -0.000 -0.0000  1.0000  0.0000
              Bcc     0.0000    -0.000    -0.000    -0.000  0.0000  0.0000  1.0000
 
              Baa     0.0000    -0.000    -0.000    -0.000  1.0000  0.0000  0.0000
    26 O(17)  Bbb     0.0000    -0.000    -0.000    -0.000 -0.0000  1.0000  0.0000
              Bcc     0.0000    -0.000    -0.000    -0.000  0.0000  0.0000  1.0000
 
              Baa     0.0000    -0.000    -0.000    -0.000  1.0000  0.0000  0.0000
    27 O(17)  Bbb     0.0000    -0.000    -0.000    -0.000 -0.0000  1.0000  0.0000
              Bcc     0.0000    -0.000    -0.000    -0.000  0.0000  0.0000  1.0000
 
              Baa     0.0000    -0.000    -0.000    -0.000  1.0000  0.0000  0.0000
    28 O(17)  Bbb     0.0000    -0.000    -0.000    -0.000 -0.0000  1.0000  0.0000
              Bcc     0.0000    -0.000    -0.000    -0.000  0.0000  0.0000  1.0000
 
              Baa     0.0000     0.000     0.000     0.000  1.0000  0.0000  0.0000
    29 C(13)  Bbb     0.0000     0.000     0.000     0.000 -0.0000  1.0000  0.0000
              Bcc     0.0000     0.000     0.000     0.000  0.0000  0.0000  1.0000
 
              Baa     0.0000     0.000     0.000     0.000  1.0000  0.0000  0.0000
    30 C(13)  Bbb     0.0000     0.000     0.000     0.000 -0.0000  1.0000  0.0000
              Bcc     0.0000     0.000     0.000     0.000  0.0000  0.0000  1.0000
 
              Baa     0.0000     0.000     0.000     0.000  1.0000  0.0000  0.0000
    31 C(13)  Bbb     0.0000     0.000     0.000     0.000 -0.0000  1.0000  0.0000
              Bcc     0.0000     0.000     0.000     0.000  0.0000  0.0000  1.0000
 
              Baa     0.0000     0.000     0.000     0.000  1.0000  0.0000  0.0000
    32 F(19)  Bbb     0.0000     0.000     0.000     0.000 -0.0000  1.0000  0.0000
              Bcc     0.0000     0.000     0.000     0.000  0.0000  0.0000  1.0000
 
              Baa     0.0000     0.000     0.000     0.000  1.0000  0.0000  0.0000
    33 F(19)  Bbb     0.0000     0.000     0.000     0.000 -0.0000  1.0000  0.0000
              Bcc     0.0000     0.000     0.000     0.000  0.0000  0.0000  1.0000
 
              Baa     0.0000     0.000     0.000     0.000  1.0000  0.0000  0.0000
    34 F(19)  Bbb     0.0000     0.000     0.000     0.000 -0.0000  1.0000  0.0000
              Bcc     0.0000     0.000     0.000     0.000  0.0000  0.0000  1.0000
 
              Baa     0.0000     0.000     0.000     0.000  1.0000  0.0000  0.0000
    35 F(19)  Bbb     0.0000     0.000     0.000     0.000 -0.0000  1.0000  0.0000
              Bcc     0.0000     0.000     0.000     0.000  0.0000  0.0000  1.0000
 
              Baa     0.0000     0.000     0.000     0.000  1.0000  0.0000  0.0000
    36 F(19)  Bbb     0.0000     0.000     0.000     0.000 -0.0000  1.0000  0.0000
              Bcc     0.0000     0.000     0.000     0.000  0.0000  0.0000  1.0000
 
              Baa     0.0000     0.000     0.000     0.000  1.0000  0.0000  0.0000
    37 F(19)  Bbb     0.0000     0.000     0.000     0.000 -0.0000  1.0000  0.0000
              Bcc     0.0000     0.000     0.000     0.000  0.0000  0.0000  1.0000
 
              Baa     0.0000     0.000     0.000     0.000  1.0000  0.0000  0.0000
    38 F(19)  Bbb     0.0000     0.000     0.000     0.000 -0.0000  1.0000  0.0000
              Bcc     0.0000     0.000     0.000     0.000  0.0000  0.0000  1.0000
 
              Baa     0.0000     0.000     0.000     0.000  1.0000  0.0000  0.0000
    39 F(19)  Bbb     0.0000     0.000     0.000     0.000 -0.0000  1.0000  0.0000
              Bcc     0.0000     0.000     0.000     0.000  0.0000  0.0000  1.0000
 
              Baa     0.0000     0.000     0.000     0.000  1.0000  0.0000  0.0000
    40 F(19)  Bbb     0.0000     0.000     0.000     0.000 -0.0000  1.0000  0.0000
              Bcc     0.0000     0.000     0.000     0.000  0.0000  0.0000  1.0000
 
              Baa     0.0000     0.000     0.000     0.000  1.0000  0.0000  0.0000
    41 C(13)  Bbb     0.0000     0.000     0.000     0.000 -0.0000  1.0000  0.0000
              Bcc     0.0000     0.000     0.000     0.000  0.0000  0.0000  1.0000
 
              Baa     0.0000     0.000     0.000     0.000  1.0000  0.0000  0.0000
    42 H(1)   Bbb     0.0000     0.000     0.000     0.000 -0.0000  1.0000  0.0000
              Bcc     0.0000     0.000     0.000     0.000  0.0000  0.0000  1.0000
 
              Baa     0.0000     0.000     0.000     0.000  1.0000  0.0000  0.0000
    43 C(13)  Bbb     0.0000     0.000     0.000     0.000 -0.0000  1.0000  0.0000
              Bcc     0.0000     0.000     0.000     0.000  0.0000  0.0000  1.0000
 
              Baa     0.0000     0.000     0.000     0.000  1.0000  0.0000  0.0000
    44 C(13)  Bbb     0.0000     0.000     0.000     0.000 -0.0000  1.0000  0.0000
              Bcc     0.0000     0.000     0.000     0.000  0.0000  0.0000  1.0000
 
              Baa     0.0000     0.000     0.000     0.000  1.0000  0.0000  0.0000
    45 C(13)  Bbb     0.0000     0.000     0.000     0.000 -0.0000  1.0000  0.0000
              Bcc     0.0000     0.000     0.000     0.000  0.0000  0.0000  1.0000
 
              Baa     0.0000     0.000     0.000     0.000  1.0000  0.0000  0.0000
    46 C(13)  Bbb     0.0000     0.000     0.000     0.000 -0.0000  1.0000  0.0000
              Bcc     0.0000     0.000     0.000     0.000  0.0000  0.0000  1.0000
 
              Baa     0.0000     0.000     0.000     0.000  1.0000  0.0000  0.0000
    47 C(13)  Bbb     0.0000     0.000     0.000     0.000 -0.0000  1.0000  0.0000
              Bcc     0.0000     0.000     0.000     0.000  0.0000  0.0000  1.0000
 
              Baa     0.0000     0.000     0.000     0.000  1.0000  0.0000  0.0000
    48 C(13)  Bbb     0.0000     0.000     0.000     0.000 -0.0000  1.0000  0.0000
              Bcc     0.0000     0.000     0.000     0.000  0.0000  0.0000  1.0000
 
              Baa     0.0000     0.000     0.000     0.000  1.0000  0.0000  0.0000
    49 H(1)   Bbb     0.0000     0.000     0.000     0.000 -0.0000  1.0000  0.0000
              Bcc     0.0000     0.000     0.000     0.000  0.0000  0.0000  1.0000
 
              Baa     0.0000     0.000     0.000     0.000  1.0000  0.0000  0.0000
    50 H(1)   Bbb     0.0000     0.000     0.000     0.000 -0.0000  1.0000  0.0000
              Bcc     0.0000     0.000     0.000     0.000  0.0000  0.0000  1.0000
 
              Baa     0.0000     0.000     0.000     0.000  1.0000  0.0000  0.0000
    51 H(1)   Bbb     0.0000     0.000     0.000     0.000 -0.0000  1.0000  0.0000
              Bcc     0.0000     0.000     0.000     0.000  0.0000  0.0000  1.0000
 
              Baa     0.0000     0.000     0.000     0.000  1.0000  0.0000  0.0000
    52 N(14)  Bbb     0.0000     0.000     0.000     0.000 -0.0000  1.0000  0.0000
              Bcc     0.0000     0.000     0.000     0.000  0.0000  0.0000  1.0000
 
              Baa     0.0000     0.000     0.000     0.000  1.0000  0.0000  0.0000
    53 N(14)  Bbb     0.0000     0.000     0.000     0.000 -0.0000  1.0000  0.0000
              Bcc     0.0000     0.000     0.000     0.000  0.0000  0.0000  1.0000
 
              Baa     0.0000     0.000     0.000     0.000  1.0000  0.0000  0.0000
    54 N(14)  Bbb     0.0000     0.000     0.000     0.000 -0.0000  1.0000  0.0000
              Bcc     0.0000     0.000     0.000     0.000  0.0000  0.0000  1.0000
 
              Baa     0.0000     0.000     0.000     0.000  1.0000  0.0000  0.0000
    55 N(14)  Bbb     0.0000     0.000     0.000     0.000 -0.0000  1.0000  0.0000
              Bcc     0.0000     0.000     0.000     0.000  0.0000  0.0000  1.0000
 
              Baa     0.0000     0.000     0.000     0.000  1.0000  0.0000  0.0000
    56 C(13)  Bbb     0.0000     0.000     0.000     0.000 -0.0000  1.0000  0.0000
              Bcc     0.0000     0.000     0.000     0.000  0.0000  0.0000  1.0000
 
              Baa     0.0000     0.000     0.000     0.000  1.0000  0.0000  0.0000
    57 H(1)   Bbb     0.0000     0.000     0.000     0.000 -0.0000  1.0000  0.0000
              Bcc     0.0000     0.000     0.000     0.000  0.0000  0.0000  1.0000
 
              Baa     0.0000     0.000     0.000     0.000  1.0000  0.0000  0.0000
    58 Lu(175 Bbb     0.0000     0.000     0.000     0.000 -0.0000  1.0000  0.0000
              Bcc     0.0000     0.000     0.000     0.000  0.0000  0.0000  1.0000
 
              Baa     0.0000    -0.000    -0.000    -0.000  1.0000  0.0000  0.0000
    59 O(17)  Bbb     0.0000    -0.000    -0.000    -0.000 -0.0000  1.0000  0.0000
              Bcc     0.0000    -0.000    -0.000    -0.000  0.0000  0.0000  1.0000
 
              Baa     0.0000     0.000     0.000     0.000  1.0000  0.0000  0.0000
    60 C(13)  Bbb     0.0000     0.000     0.000     0.000 -0.0000  1.0000  0.0000
              Bcc     0.0000     0.000     0.000     0.000  0.0000  0.0000  1.0000
 
              Baa     0.0000     0.000     0.000     0.000  1.0000  0.0000  0.0000
    61 H(1)   Bbb     0.0000     0.000     0.000     0.000 -0.0000  1.0000  0.0000
              Bcc     0.0000     0.000     0.000     0.000  0.0000  0.0000  1.0000
 
              Baa     0.0000     0.000     0.000     0.000  1.0000  0.0000  0.0000
    62 H(1)   Bbb     0.0000     0.000     0.000     0.000 -0.0000  1.0000  0.0000
              Bcc     0.0000     0.000     0.000     0.000  0.0000  0.0000  1.0000
 
              Baa     0.0000     0.000     0.000     0.000  1.0000  0.0000  0.0000
    63 H(1)   Bbb     0.0000     0.000     0.000     0.000 -0.0000  1.0000  0.0000
              Bcc     0.0000     0.000     0.000     0.000  0.0000  0.0000  1.0000
 
              Baa     0.0000     0.000     0.000     0.000  1.0000  0.0000  0.0000
    64 C(13)  Bbb     0.0000     0.000     0.000     0.000 -0.0000  1.0000  0.0000
              Bcc     0.0000     0.000     0.000     0.000  0.0000  0.0000  1.0000
 
              Baa     0.0000     0.000     0.000     0.000  1.0000  0.0000  0.0000
    65 H(1)   Bbb     0.0000     0.000     0.000     0.000 -0.0000  1.0000  0.0000
              Bcc     0.0000     0.000     0.000     0.000  0.0000  0.0000  1.0000
 
              Baa     0.0000     0.000     0.000     0.000  1.0000  0.0000  0.0000
    66 H(1)   Bbb     0.0000     0.000     0.000     0.000 -0.0000  1.0000  0.0000
              Bcc     0.0000     0.000     0.000     0.000  0.0000  0.0000  1.0000
 
              Baa     0.0000     0.000     0.000     0.000  1.0000  0.0000  0.0000
    67 H(1)   Bbb     0.0000     0.000     0.000     0.000 -0.0000  1.0000  0.0000
              Bcc     0.0000     0.000     0.000     0.000  0.0000  0.0000  1.0000
 

 ---------------------------------------------------------------------------------

 No NMR shielding tensors so no spin-rotation constants.
 Leave Link  601 at Thu May  1 10:35:41 2025, MaxMem= 82678120448 cpu:             140.7 elap:               7.1
 (Enter /sysapps/ubuntu-applications/gaussian-new/avx/g16/l9999.exe)
 1\1\GINC-ACIDSMN004\FOpt\UMN15\GenECP\C22H16F9Lu1N4O12S3\SELHAJJ1\01-M
 ay-2025\0\\#P UMN15/genecp scf=(maxcyc=500) opt scrf=(smd,solvent=DiCh
 loroEthane)\\Opt\\0,1\C,-5.7857129779,0.6153292388,0.3303491983\C,-6.9
 246932147,0.549134912,-0.4817356726\C,-8.0160025149,1.3795692729,-0.22
 40373784\C,-7.9693676069,2.284255401,0.8396445871\C,-6.830736297,2.356
 5850387,1.6461583578\C,-5.7394804054,1.5232989814,1.3960449318\C,-2.18
 93093784,-0.3460500423,0.4265526018\C,-1.5708999161,-0.3276103337,-0.9
 708078206\C,-1.2828154962,0.3649528751,1.4348531949\H,-6.9518463839,-0
 .1538517158,-1.3191915169\H,-8.9013389655,1.3249548437,-0.8609238635\H
 ,-8.8215217086,2.9381681332,1.0379655677\H,-6.7905116863,3.0661249967,
 2.4752990559\H,-4.8470793234,1.5782378176,2.0232297226\O,-0.0720441702
 ,0.1479630603,1.4278551439\O,-0.3865463984,-0.6470181695,-1.1006933778
 \O,3.1184526027,-0.3727407454,1.512599941\O,2.786049494,-1.2478226527,
 -1.5629915247\O,0.2483041062,1.9949189254,-0.6858172254\S,1.2490509052
 ,2.5624163546,-1.6410143268\S,3.4470794221,1.0446642924,1.8825899622\S
 ,2.5767024275,-2.5687940584,-0.8775663371\O,2.3126837845,1.5130482109,
 -1.7608263138\O,1.6617435744,3.9278165141,-1.4592361414\O,2.4723713271
 ,1.8631230344,1.1007405091\O,3.6446477894,1.351254219,3.2718554612\O,1
 .6556300735,-2.2650903191,0.2539720296\O,2.2631602338,-3.7034533834,-1
 .7071505014\C,4.2219140803,-2.9479726163,-0.081640784\C,5.0496945023,1
 .3101001559,1.0180350182\C,0.4025745827,2.50054585,-3.2806682443\F,4.0
 140299081,-3.3543684678,1.1536926183\F,4.9864571544,-1.874439084,-0.07
 74418327\F,4.8094748414,-3.9039678416,-0.772798287\F,4.8730088095,1.03
 37895658,-0.264595826\F,5.9568833842,0.5008963196,1.5264371251\F,5.433
 2946139,2.5619348563,1.1566673908\F,0.355796001,1.2478871496,-3.704576
 6216\F,1.0732569901,3.2336832196,-4.1443094076\F,-0.8254668086,2.96884
 57251,-3.154093226\C,-4.6396921836,-0.3240537124,0.0676855359\H,-4.620
 4706108,-0.5975673362,-0.9996154255\C,-4.7554450152,-1.6890237687,0.81
 94378622\C,-5.9251497109,-2.4447519151,0.3362492606\C,-4.8886357602,-1
 .4410926294,2.2706415747\C,-1.1795402929,-2.7390790334,0.8479035208\C,
 -2.3934508028,-3.4979040877,-1.0844354974\C,-1.213052112,-3.5335984014
 ,-0.2367302847\H,-0.3315865679,-2.7074395736,1.5312365849\H,-2.3946582
 26,-3.9633651878,-2.0732505031\H,-0.3757196617,-4.1811101314,-0.502517
 1846\N,-6.8668636802,-2.9960028064,-0.0464388434\N,-4.9617072806,-1.18
 73571033,3.3970618084\N,-3.5290738739,-2.4446676449,0.5641292799\N,-3.
 5073567401,-2.9703967469,-0.6940055693\C,-2.3350227068,-1.8216396981,1
 .0739871239\H,-2.4859235742,-1.6349624107,2.1492397318\Lu,1.5688455416
 ,0.0656630416,-0.1382647308\O,-3.4373526727,0.2921893898,0.4808145445\
 C,-1.9317300461,1.22337305,2.4491267762\H,-2.3949757501,2.078452239,1.
 929781857\H,-2.7559661055,0.6724525594,2.932544377\H,-1.1911303015,1.5
 63300514,3.1807660978\C,-2.3800955115,0.1290805879,-2.1293336259\H,-3.
 1057809843,-0.6524057571,-2.4067920007\H,-2.9434869195,1.0356895367,-1
 .8637087115\H,-1.7205042368,0.3014911617,-2.9852584765\\Version=ES64L-
 G16RevA.03\State=1-A\HF=-5296.0137075\S2=0.\S2-1=0.\S2A=0.\RMSD=5.176e
 -09\RMSF=6.664e-06\Dipole=-4.3598204,-0.1160328,-0.4639351\Quadrupole=
 1.577685,-6.1308945,4.5532094,-25.0218186,6.2170147,1.8774609\PG=C01 [
 X(C22H16F9Lu1N4O12S3)]\\@


 "WOULD YOU TELL ME PLEASE, WHICH WAY I OUGHT TO WALK FROM HERE?"
 "THAT DEPENDS A GREAT DEAL ON WHERE YOU WANT TO GO," SAID THE CAT.
 "I DON'T MUCH CARE WHERE -- ", SAID ALICE.
 "THEN IT DOESN'T MATTER WHICH WAY YOU WALK," SAID THE CAT.

                                      -- LEWIS CARROLL
 Job cpu time:       9 days 19 hours 38 minutes 16.2 seconds.
 Elapsed time:       0 days 10 hours 16 minutes 15.5 seconds.
 File lengths (MBytes):  RWF=   1536 Int=      0 D2E=      0 Chk=     88 Scr=      8
 Normal termination of Gaussian 16 at Thu May  1 10:35:41 2025.
